 Entering Gaussian System, Link 0=g16
 Input=no3.gjf
 Output=no3.log
 Initial command:
 /opt/g16/l1.exe "/scratch/mtmjea001/volumes/no3/Gau-2831.inp" -scrdir="/scratch/mtmjea001/volumes/no3/"
 Entering Link 1 = /opt/g16/l1.exe PID=      2832.
  
 Copyright (c) 1988-2019, Gaussian, Inc.  All Rights Reserved.
  
 This is part of the Gaussian(R) 16 program.  It is based on
 the Gaussian(R) 09 system (copyright 2009, Gaussian, Inc.),
 the Gaussian(R) 03 system (copyright 2003, Gaussian, Inc.),
 the Gaussian(R) 98 system (copyright 1998, Gaussian, Inc.),
 the Gaussian(R) 94 system (copyright 1995, Gaussian, Inc.),
 the Gaussian 92(TM) system (copyright 1992, Gaussian, Inc.),
 the Gaussian 90(TM) system (copyright 1990, Gaussian, Inc.),
 the Gaussian 88(TM) system (copyright 1988, Gaussian, Inc.),
 the Gaussian 86(TM) system (copyright 1986, Carnegie Mellon
 University), and the Gaussian 82(TM) system (copyright 1983,
 Carnegie Mellon University). Gaussian is a federally registered
 trademark of Gaussian, Inc.
  
 This software contains proprietary and confidential information,
 including trade secrets, belonging to Gaussian, Inc.
  
 This software is provided under written license and may be
 used, copied, transmitted, or stored only in accord with that
 written license.
  
 The following legend is applicable only to US Government
 contracts under FAR:
  
                    RESTRICTED RIGHTS LEGEND
  
 Use, reproduction and disclosure by the US Government is
 subject to restrictions as set forth in subparagraphs (a)
 and (c) of the Commercial Computer Software - Restricted
 Rights clause in FAR 52.227-19.
  
 Gaussian, Inc.
 340 Quinnipiac St., Bldg. 40, Wallingford CT 06492
  
  
 ---------------------------------------------------------------
 Warning -- This program may not be used in any manner that
 competes with the business of Gaussian, Inc. or will provide
 assistance to any competitor of Gaussian, Inc.  The licensee
 of this program is prohibited from giving any competitor of
 Gaussian, Inc. access to this program.  By using this program,
 the user acknowledges that Gaussian, Inc. is engaged in the
 business of creating and licensing software in the field of
 computational chemistry and represents and warrants to the
 licensee that it is not a competitor of Gaussian, Inc. and that
 it will not use this program in any manner prohibited above.
 ---------------------------------------------------------------
  

 Cite this work as:
 Gaussian 16, Revision C.01,
 M. J. Frisch, G. W. Trucks, H. B. Schlegel, G. E. Scuseria, 
 M. A. Robb, J. R. Cheeseman, G. Scalmani, V. Barone, 
 G. A. Petersson, H. Nakatsuji, X. Li, M. Caricato, A. V. Marenich, 
 J. Bloino, B. G. Janesko, R. Gomperts, B. Mennucci, H. P. Hratchian, 
 J. V. Ortiz, A. F. Izmaylov, J. L. Sonnenberg, D. Williams-Young, 
 F. Ding, F. Lipparini, F. Egidi, J. Goings, B. Peng, A. Petrone, 
 T. Henderson, D. Ranasinghe, V. G. Zakrzewski, J. Gao, N. Rega, 
 G. Zheng, W. Liang, M. Hada, M. Ehara, K. Toyota, R. Fukuda, 
 J. Hasegawa, M. Ishida, T. Nakajima, Y. Honda, O. Kitao, H. Nakai, 
 T. Vreven, K. Throssell, J. A. Montgomery, Jr., J. E. Peralta, 
 F. Ogliaro, M. J. Bearpark, J. J. Heyd, E. N. Brothers, K. N. Kudin, 
 V. N. Staroverov, T. A. Keith, R. Kobayashi, J. Normand, 
 K. Raghavachari, A. P. Rendell, J. C. Burant, S. S. Iyengar, 
 J. Tomasi, M. Cossi, J. M. Millam, M. Klene, C. Adamo, R. Cammi, 
 J. W. Ochterski, R. L. Martin, K. Morokuma, O. Farkas, 
 J. B. Foresman, and D. J. Fox, Gaussian, Inc., Wallingford CT, 2019.
 
 ******************************************
 Gaussian 16:  ES64L-G16RevC.01  3-Jul-2019
                10-Mar-2020 
 ******************************************
 %chk=no3.chk
 %mem=56Gb
 %nprocs=12
 Will use up to   12 processors via shared memory.
 Default route: test
 ----------------------------------------------------------
 #p pbepbe/def2tzvp/w06 opt scrf(cpcm,solvent=generic,read)
 ----------------------------------------------------------
 1/18=20,19=15,26=3,38=1,40=2/1,3;
 2/9=110,12=2,17=6,18=5,40=1/2;
 3/5=44,7=101,11=2,25=1,30=1,70=2103,71=1,72=-2,74=1009,82=40/1,2,3;
 4//1;
 5/5=2,38=5/2;
 6/7=2,8=2,9=2,10=2,28=1/1;
 7//1,2,3,16;
 1/18=20,19=15,26=3/3(2);
 2/9=110/2;
 99//99;
 2/9=110/2;
 3/5=44,7=101,11=2,25=1,30=1,70=2105,71=1,72=-2,74=1009,82=40/1,2,3;
 4/5=5,16=3,69=1/1;
 5/5=2,38=5/2;
 7//1,2,3,16;
 1/18=20,19=15,26=3/3(-5);
 2/9=110/2;
 6/7=2,8=2,9=2,10=2,19=2,28=1/1;
 99/9=1/99;
 Leave Link    1 at Tue Mar 10 15:41:04 2020, MaxMem=  7516192768 cpu:               0.6 elap:               0.1
 (Enter /opt/g16/l101.exe)
 ---
 no3
 ---
 Symbolic Z-matrix:
 Charge = -1 Multiplicity = 1
 N                     1.05499   0.04695  -0.04053 
 O                     0.4339    0.77508  -0.83242 
 O                     0.4339   -0.68118   0.75136 
 O                     2.29717   0.04695  -0.04053 
 
 ITRead=  0  0  0  0
 MicOpt= -1 -1 -1 -1
 NAtoms=      4 NQM=        4 NQMF=       0 NMMI=      0 NMMIF=      0
                NMic=       0 NMicF=      0.
                    Isotopes and Nuclear Properties:
 (Nuclear quadrupole moments (NQMom) in fm**2, nuclear magnetic moments (NMagM)
  in nuclear magnetons)

  Atom         1           2           3           4
 IAtWgt=          14          16          16          16
 AtmWgt=  14.0030740  15.9949146  15.9949146  15.9949146
 NucSpn=           2           0           0           0
 AtZEff=  -0.0000000  -0.0000000  -0.0000000  -0.0000000
 NQMom=    2.0440000   0.0000000   0.0000000   0.0000000
 NMagM=    0.4037610   0.0000000   0.0000000   0.0000000
 AtZNuc=   7.0000000   8.0000000   8.0000000   8.0000000
 Leave Link  101 at Tue Mar 10 15:41:04 2020, MaxMem=  7516192768 cpu:               3.4 elap:               0.3
 (Enter /opt/g16/l103.exe)

 GradGradGradGradGradGradGradGradGradGradGradGradGradGradGradGradGradGrad
 Berny optimization.
 Initialization pass.
                           ----------------------------
                           !    Initial Parameters    !
                           ! (Angstroms and Degrees)  !
 --------------------------                            --------------------------
 ! Name  Definition              Value          Derivative Info.                !
 --------------------------------------------------------------------------------
 ! R1    R(1,2)                  1.2422         estimate D2E/DX2                !
 ! R2    R(1,3)                  1.2422         estimate D2E/DX2                !
 ! R3    R(1,4)                  1.2422         estimate D2E/DX2                !
 ! A1    A(2,1,3)              120.0001         estimate D2E/DX2                !
 ! A2    A(2,1,4)              119.9999         estimate D2E/DX2                !
 ! A3    A(3,1,4)              119.9999         estimate D2E/DX2                !
 ! D1    D(2,1,4,3)            180.0            estimate D2E/DX2                !
 --------------------------------------------------------------------------------
 Trust Radius=3.00D-01 FncErr=1.00D-07 GrdErr=1.00D-06 EigMax=2.50D+02 EigMin=1.00D-04
 Number of steps in this run=     20 maximum allowed number of steps=    100.
 GradGradGradGradGradGradGradGradGradGradGradGradGradGradGradGradGradGrad

 Leave Link  103 at Tue Mar 10 15:41:04 2020, MaxMem=  7516192768 cpu:               0.1 elap:               0.0
 (Enter /opt/g16/l202.exe)
                          Input orientation:                          
 ---------------------------------------------------------------------
 Center     Atomic      Atomic             Coordinates (Angstroms)
 Number     Number       Type             X           Y           Z
 ---------------------------------------------------------------------
      1          7           0        1.054990    0.046950   -0.040530
      2          8           0        0.433900    0.775080   -0.832420
      3          8           0        0.433900   -0.681180    0.751360
      4          8           0        2.297170    0.046950   -0.040530
 ---------------------------------------------------------------------
                    Distance matrix (angstroms):
                    1          2          3          4
     1  N    0.000000
     2  O    1.242182   0.000000
     3  O    1.242182   2.151523   0.000000
     4  O    1.242180   2.151520   2.151520   0.000000
 Stoichiometry    NO3(1-)
 Framework group  C2V[C2(NO),SGV(O2)]
 Deg. of freedom     3
 Full point group                 C2V     NOp   4
 Largest Abelian subgroup         C2V     NOp   4
 Largest concise Abelian subgroup C2      NOp   2
                         Standard orientation:                         
 ---------------------------------------------------------------------
 Center     Atomic      Atomic             Coordinates (Angstroms)
 Number     Number       Type             X           Y           Z
 ---------------------------------------------------------------------
      1          7           0        0.000000    0.000000    0.000000
      2          8           0       -0.000000    1.075762   -0.621090
      3          8           0       -0.000000   -1.075762   -0.621090
      4          8           0        0.000000    0.000000    1.242180
 ---------------------------------------------------------------------
 Rotational constants (GHZ):          13.6513295          13.6512740           6.8256509
 Leave Link  202 at Tue Mar 10 15:41:04 2020, MaxMem=  7516192768 cpu:               0.4 elap:               0.1
 (Enter /opt/g16/l301.exe)
 Standard basis: def2TZVP (5D, 7F)
 Ernie: Thresh=  0.10000D-02 Tol=  0.10000D-05 Strict=F.
 There are    59 symmetry adapted cartesian basis functions of A1  symmetry.
 There are    17 symmetry adapted cartesian basis functions of A2  symmetry.
 There are    27 symmetry adapted cartesian basis functions of B1  symmetry.
 There are    41 symmetry adapted cartesian basis functions of B2  symmetry.
 There are    49 symmetry adapted basis functions of A1  symmetry.
 There are    16 symmetry adapted basis functions of A2  symmetry.
 There are    24 symmetry adapted basis functions of B1  symmetry.
 There are    35 symmetry adapted basis functions of B2  symmetry.
   124 basis functions,   204 primitive gaussians,   144 cartesian basis functions
    16 alpha electrons       16 beta electrons
       nuclear repulsion energy       118.7924275503 Hartrees.
 IExCor= 1009 DFT=T Ex=PBE Corr=PBE ExCW=0 ScaHFX=  0.000000
 ScaDFX=  1.000000  1.000000  1.000000  1.000000 ScalE2=  1.000000  1.000000
 IRadAn=      5 IRanWt=     -1 IRanGd=            0 ICorTp=0 IEmpDi=  4
 NAtoms=    4 NActive=    4 NUniq=    3 SFac= 1.78D+00 NAtFMM=   60 NAOKFM=F Big=F
 Integral buffers will be    131072 words long.
 Raffenetti 2 integral format.
 Two-electron integral symmetry is turned on.
 Standard density basis: W06 (5D, 7F)
   196 Density fitting functions
 There are   196 symmetry adapted density basis functions of A   symmetry.
 Using the following non-standard input for PCM:
 eps=999.0
 --- end of non-standard input.
 ------------------------------------------------------------------------------
 Polarizable Continuum Model (PCM)
 =================================
 Model                : C-PCM.
 Atomic radii         : UFF (Universal Force Field).
 Polarization charges : Total charges.
 Charge compensation  : None.
 Solution method      : On-the-fly selection.
 Cavity type          : Scaled VdW (van der Waals Surface) (Alpha=1.100).
 Cavity algorithm     : GePol (No added spheres)
                        Default sphere list used, NSphG=    4.
                        Lebedev-Laikov grids with approx.  5.0 points / Ang**2.
                        Smoothing algorithm: York/Karplus (Gamma=1.0000).
                        Polarization charges: spherical gaussians, with
                                              point-specific exponents (IZeta= 3).
                        Self-potential: point-specific (ISelfS= 7).
                        Self-field    : sphere-specific E.n sum rule (ISelfD= 2).
 1st derivatives      : Analytical E(r).r(x)/FMM algorithm (CHGder, D1EAlg=3).
                        Cavity 1st derivative terms included.
 Solvent              : Generic,
                        Eps                           = 999.000000
                        Eps(infinity)                 =   0.000000
                        RSolv                         =   0.000000 Ang.
                        Molar volume                  =   0.000000 cm**3/mol
                        Thermal expansion coefficient =   0.000000 K**-1
                        Absolute temperature          = 298.150000 K
                        Numeral density               =   0.000000 Ang**-3
                        Hydrogen bond acidity         =   0.000000
                        Hydrogen bond basicity        =   0.000000
                        Surface tension at interface  =   0.000000 (cal/mol)*Ang**-2
                        Carbon aromaticity            =   0.000000
                        Electronegative halogenicity  =   0.000000
 ------------------------------------------------------------------------------
 Spheres list:
 ISph  on   Nord     Re0    Alpha      Xe            Ye            Ze
    1   N      1    1.8300  1.100     -0.000000      0.000000      0.000000
    2   O      2    1.7500  1.100     -0.000000      1.075762     -0.621090
    3   O      3    1.7500  1.100     -0.000000     -1.075762     -0.621090
    4   O      4    1.7500  1.100     -0.000000     -0.000000      1.242180
 ------------------------------------------------------------------------------
 GePol: Number of generator spheres                  =       4
 GePol: Total number of spheres                      =       4
 GePol: Number of exposed spheres                    =       4 (100.00%)
 GePol: Number of points                             =     663
 GePol: Average weight of points                     =       0.13
 GePol: Minimum weight of points                     =   0.83D-05
 GePol: Maximum weight of points                     =    0.18221
 GePol: Number of points with low weight             =      24
 GePol: Fraction of low-weight points (<1% of avg)   =       3.62%
 GePol: Cavity surface area                          =     89.289 Ang**2
 GePol: Cavity volume                                =     71.366 Ang**3
 Leave Link  301 at Tue Mar 10 15:41:04 2020, MaxMem=  7516192768 cpu:               0.8 elap:               0.1
 (Enter /opt/g16/l302.exe)
 NPDir=0 NMtPBC=     1 NCelOv=     1 NCel=       1 NClECP=     1 NCelD=      1
         NCelK=      1 NCelE2=     1 NClLst=     1 CellRange=     0.0.
 One-electron integrals computed using PRISM.
 One-electron integral symmetry used in STVInt
   4 Symmetry operations used in ECPInt.
 ECPInt:  NShTT=     990 NPrTT=    3328 LenC2=     979 LenP2D=    2800.
 LDataN:  DoStor=T MaxTD1= 6 Len=  172
 NBasis=   124 RedAO= T EigKep=  1.27D-03  NBF=    49    16    24    35
 NBsUse=   124 1.00D-06 EigRej= -1.00D+00 NBFU=    49    16    24    35
 NBasis=      124 NBas6D=      144 NTT=        7750   NTT6D=    10440
 NDBShl=       60 NDBF=        196 NDBF6D=      244  NNucDB=        0
 IDenFi=        2 ISolve=        0 FullAP=F BlkAPC=T NucTyp=        0
 TolInv= 1.00D-06 TolIt=  1.00D-10 IR12=0.
 FoFCou: FMM=F IPFlag=           0 FMFlag=           0 FMFlg1=           0
         NFxFlg=           0 DoJE=F BraDBF=T KetDBF=T FulRan=T
         wScrn=  0.000000 ICntrl=       600 IOpCl=  3 I1Cent=           6 NGrid=           0
         NMat0=    1 NMatS0=    244 NMatT0=    0 NMatD0=    1 NMtDS0=    0 NMtDT0=    0
 Petite list used in FoFCou.
 DBF EigKep=  1.59D-05 EigRej= -1.00D+00
 NDBF=    196  NBFD=   196
 NRank=   196 NBFDU=   196
 S*AI*S=  5.59292985342    
 Precomputing XC quadrature grid using
 IXCGrd= 4 IRadAn=           5 IRanWt=          -1 IRanGd=           0 AccXCQ= 0.00D+00.
 Generated NRdTot=       0 NPtTot=           0 NUsed=           0 NTot=          32
 NSgBfM=   144   144   144   144   144 MxSgAt=     4 MxSgA2=     4.
 Leave Link  302 at Tue Mar 10 15:41:05 2020, MaxMem=  7516192768 cpu:               3.0 elap:               0.3
 (Enter /opt/g16/l303.exe)
 DipDrv:  MaxL=1.
 Leave Link  303 at Tue Mar 10 15:41:05 2020, MaxMem=  7516192768 cpu:               0.3 elap:               0.0
 (Enter /opt/g16/l401.exe)
 ExpMin= 1.36D-01 ExpMax= 2.70D+04 ExpMxC= 9.22D+02 IAcc=3 IRadAn=         5 AccDes= 0.00D+00
 Harris functional with IExCor= 1009 and IRadAn=       5 diagonalized for initial guess.
 HarFok:  IExCor= 1009 AccDes= 0.00D+00 IRadAn=         5 IDoV= 1 UseB2=F ITyADJ=14
 ICtDFT=  3500011 ScaDFX=  1.000000  1.000000  1.000000  1.000000
 FoFCou: FMM=F IPFlag=           0 FMFlag=      100000 FMFlg1=           0
         NFxFlg=           0 DoJE=T BraDBF=F KetDBF=T FulRan=T
         wScrn=  0.000000 ICntrl=       500 IOpCl=  0 I1Cent=   200000004 NGrid=           0
         NMat0=    1 NMatS0=      1 NMatT0=    0 NMatD0=    1 NMtDS0=    0 NMtDT0=    0
 Petite list used in FoFCou.
 Harris En= -280.422749963924    
 JPrj=0 DoOrth=F DoCkMO=F.
 Initial guess orbital symmetries:
       Occupied  (A1) (B2) (A1) (A1) (A1) (A1) (B2) (A1) (B2) (A1)
                 (B1) (B2) (A1) (B1) (A2) (B2)
       Virtual   (B1) (A1) (A1) (B2) (A1) (B1) (B2) (A1) (A1) (A1)
                 (B2) (A2) (B1) (B2) (A1) (B2) (B1) (A1) (A1) (B2)
                 (A2) (B1) (A1) (B2) (A1) (A2) (B1) (A2) (B2) (A1)
                 (A1) (B1) (B2) (A1) (A1) (B2) (A2) (B1) (B1) (A1)
                 (A1) (B2) (B2) (B2) (A1) (B1) (A2) (B1) (A1) (B2)
                 (A1) (A1) (B2) (A1) (B2) (A2) (B1) (A1) (B2) (B1)
                 (B2) (A1) (A1) (A2) (B1) (B2) (A1) (A2) (B2) (B1)
                 (A2) (B1) (A1) (A1) (B2) (A1) (B2) (B1) (A2) (A1)
                 (A1) (B2) (A2) (A2) (B1) (B1) (A1) (B2) (A1) (A2)
                 (B1) (B2) (B1) (A2) (B1) (B2) (A1) (A1) (B2) (A1)
                 (A1) (A1) (B2) (B2) (A1) (A1) (B2) (A1)
 The electronic state of the initial guess is 1-A1.
 Leave Link  401 at Tue Mar 10 15:41:05 2020, MaxMem=  7516192768 cpu:               2.9 elap:               0.3
 (Enter /opt/g16/l502.exe)
 Density fitting will be used, IDenFit= 2 NucTyp=  0.
 Integral symmetry usage will be decided dynamically.
 Closed shell SCF:
 Using DIIS extrapolation, IDIIS=  1040.
 NGot=  7516192768 LenX=  7516146974 LenY=  7516125797
 Requested convergence on RMS density matrix=1.00D-08 within 128 cycles.
 Requested convergence on MAX density matrix=1.00D-06.
 Requested convergence on             energy=1.00D-06.
 No special actions if energy rises.
 Fock matrices will be formed incrementally for  20 cycles.

 Cycle   1  Pass 1  IDiag  1:
 FoFCou: FMM=F IPFlag=           0 FMFlag=      100000 FMFlg1=           0
         NFxFlg=           0 DoJE=T BraDBF=T KetDBF=F FulRan=T
         wScrn=  0.000000 ICntrl=       500 IOpCl=  0 I1Cent=           5 NGrid=           0
         NMat0=    1 NMatS0=      1 NMatT0=    0 NMatD0=    1 NMtDS0=    0 NMtDT0=    0
 Petite list used in FoFCou.
 FoFJK:  IHMeth= 1 ICntrl=     500 DoSepK=F KAlg= 0 I1Cent=           4 FoldK=F
 IRaf= 980000000 NMat=       1 IRICut=       1 DoRegI=T DoRafI=F ISym2E= 1 IDoP0=0 IntGTp=1.
 Inv3:  Mode=1 IEnd=     1318707.
 Iteration    1 A*A^-1 deviation from unit magnitude is 3.11D-15 for    395.
 Iteration    1 A*A^-1 deviation from orthogonality  is 1.23D-15 for    628     43.
 Iteration    1 A^-1*A deviation from unit magnitude is 3.11D-15 for    395.
 Iteration    1 A^-1*A deviation from orthogonality  is 2.27D-15 for    646    126.
 E= -280.111035463008    
 DIIS: error= 6.67D-02 at cycle   1 NSaved=   1.
 NSaved= 1 IEnMin= 1 EnMin= -280.111035463008     IErMin= 1 ErrMin= 6.67D-02
 ErrMax= 6.67D-02  0.00D+00 EMaxC= 1.00D-01 BMatC= 3.18D-01 BMatP= 3.18D-01
 IDIUse=3 WtCom= 3.33D-01 WtEn= 6.67D-01
 Coeff-Com:  0.100D+01
 Coeff-En:   0.100D+01
 Coeff:      0.100D+01
 Gap=     0.024 Goal=   None    Shift=    0.000
 GapD=    0.024 DampG=0.250 DampE=0.500 DampFc=0.2500 IDamp=-1.
 Damping current iteration by 2.50D-01
 RMSDP=6.88D-03 MaxDP=1.61D-01              OVMax= 2.71D-01

 Cycle   2  Pass 1  IDiag  1:
 RMSU=  1.72D-03    CP:  9.95D-01
 E= -280.189911570902     Delta-E=       -0.078876107894 Rises=F Damp=T
 DIIS: error= 1.82D-02 at cycle   2 NSaved=   2.
 NSaved= 2 IEnMin= 2 EnMin= -280.189911570902     IErMin= 2 ErrMin= 1.82D-02
 ErrMax= 1.82D-02  0.00D+00 EMaxC= 1.00D-01 BMatC= 2.30D-02 BMatP= 3.18D-01
 IDIUse=3 WtCom= 8.18D-01 WtEn= 1.82D-01
 Coeff-Com: -0.291D+00 0.129D+01
 Coeff-En:   0.139D-01 0.986D+00
 Coeff:     -0.236D+00 0.124D+01
 Gap=     0.117 Goal=   None    Shift=    0.000
 RMSDP=1.47D-03 MaxDP=2.42D-02 DE=-7.89D-02 OVMax= 2.58D-01

 Cycle   3  Pass 1  IDiag  1:
 RMSU=  1.01D-03    CP:  9.89D-01  1.62D+00
 E= -280.316558453279     Delta-E=       -0.126646882377 Rises=F Damp=F
 DIIS: error= 1.05D-02 at cycle   3 NSaved=   3.
 NSaved= 3 IEnMin= 3 EnMin= -280.316558453279     IErMin= 3 ErrMin= 1.05D-02
 ErrMax= 1.05D-02  0.00D+00 EMaxC= 1.00D-01 BMatC= 7.96D-03 BMatP= 2.30D-02
 IDIUse=3 WtCom= 8.95D-01 WtEn= 1.05D-01
 Coeff-Com: -0.503D-01 0.481D+00 0.569D+00
 Coeff-En:   0.000D+00 0.000D+00 0.100D+01
 Coeff:     -0.450D-01 0.431D+00 0.614D+00
 Gap=     0.138 Goal=   None    Shift=    0.000
 RMSDP=6.71D-04 MaxDP=1.24D-02 DE=-1.27D-01 OVMax= 1.91D-02

 Cycle   4  Pass 1  IDiag  1:
 RMSU=  3.08D-04    CP:  9.94D-01  1.35D+00  6.40D-01
 E= -280.321644158073     Delta-E=       -0.005085704793 Rises=F Damp=F
 DIIS: error= 2.62D-03 at cycle   4 NSaved=   4.
 NSaved= 4 IEnMin= 4 EnMin= -280.321644158073     IErMin= 4 ErrMin= 2.62D-03
 ErrMax= 2.62D-03  0.00D+00 EMaxC= 1.00D-01 BMatC= 6.58D-04 BMatP= 7.96D-03
 IDIUse=3 WtCom= 9.74D-01 WtEn= 2.62D-02
 Coeff-Com:  0.271D-01 0.673D-02 0.274D+00 0.692D+00
 Coeff-En:   0.000D+00 0.000D+00 0.000D+00 0.100D+01
 Coeff:      0.264D-01 0.655D-02 0.267D+00 0.700D+00
 Gap=     0.139 Goal=   None    Shift=    0.000
 RMSDP=1.50D-04 MaxDP=3.07D-03 DE=-5.09D-03 OVMax= 5.87D-03

 Cycle   5  Pass 1  IDiag  1:
 RMSU=  4.15D-05    CP:  9.93D-01  1.38D+00  7.45D-01  7.23D-01
 E= -280.322138230304     Delta-E=       -0.000494072231 Rises=F Damp=F
 DIIS: error= 3.21D-04 at cycle   5 NSaved=   5.
 NSaved= 5 IEnMin= 5 EnMin= -280.322138230304     IErMin= 5 ErrMin= 3.21D-04
 ErrMax= 3.21D-04  0.00D+00 EMaxC= 1.00D-01 BMatC= 6.04D-06 BMatP= 6.58D-04
 IDIUse=3 WtCom= 9.97D-01 WtEn= 3.21D-03
 Coeff-Com:  0.463D-02 0.418D-03 0.549D-01 0.193D+00 0.747D+00
 Coeff-En:   0.000D+00 0.000D+00 0.000D+00 0.000D+00 0.100D+01
 Coeff:      0.462D-02 0.417D-03 0.547D-01 0.192D+00 0.748D+00
 Gap=     0.139 Goal=   None    Shift=    0.000
 RMSDP=1.35D-05 MaxDP=2.62D-04 DE=-4.94D-04 OVMax= 4.62D-04

 Cycle   6  Pass 1  IDiag  1:
 RMSU=  4.56D-06    CP:  9.93D-01  1.38D+00  7.37D-01  7.42D-01  8.14D-01
 E= -280.322142619661     Delta-E=       -0.000004389357 Rises=F Damp=F
 DIIS: error= 3.03D-05 at cycle   6 NSaved=   6.
 NSaved= 6 IEnMin= 6 EnMin= -280.322142619661     IErMin= 6 ErrMin= 3.03D-05
 ErrMax= 3.03D-05  0.00D+00 EMaxC= 1.00D-01 BMatC= 8.75D-08 BMatP= 6.04D-06
 IDIUse=1 WtCom= 1.00D+00 WtEn= 0.00D+00
 Coeff-Com:  0.615D-03 0.515D-03 0.109D-01 0.417D-01 0.203D+00 0.743D+00
 Coeff:      0.615D-03 0.515D-03 0.109D-01 0.417D-01 0.203D+00 0.743D+00
 Gap=     0.139 Goal=   None    Shift=    0.000
 RMSDP=3.66D-06 MaxDP=1.04D-04 DE=-4.39D-06 OVMax= 3.47D-04

 Cycle   7  Pass 1  IDiag  1:
 RMSU=  3.21D-06    CP:  9.93D-01  1.38D+00  7.37D-01  7.43D-01  8.25D-01
                    CP:  6.34D-01
 E= -280.322142484871     Delta-E=        0.000000134789 Rises=F Damp=F
 DIIS: error= 6.33D-05 at cycle   7 NSaved=   7.
 NSaved= 7 IEnMin= 6 EnMin= -280.322142619661     IErMin= 6 ErrMin= 3.03D-05
 ErrMax= 6.33D-05  0.00D+00 EMaxC= 1.00D-01 BMatC= 2.65D-07 BMatP= 8.75D-08
 IDIUse=1 WtCom= 1.00D+00 WtEn= 0.00D+00
 Coeff-Com: -0.137D-04 0.377D-03 0.279D-02 0.125D-01 0.825D-01 0.619D+00
 Coeff-Com:  0.283D+00
 Coeff:     -0.137D-04 0.377D-03 0.279D-02 0.125D-01 0.825D-01 0.619D+00
 Coeff:      0.283D+00
 Gap=     0.139 Goal=   None    Shift=    0.000
 RMSDP=2.46D-06 MaxDP=6.60D-05 DE= 1.35D-07 OVMax= 2.37D-04

 Cycle   8  Pass 1  IDiag  1:
 RMSU=  2.60D-07    CP:  9.93D-01  1.38D+00  7.37D-01  7.43D-01  8.26D-01
                    CP:  8.06D-01  2.79D-01
 E= -280.322142682970     Delta-E=       -0.000000198099 Rises=F Damp=F
 DIIS: error= 2.45D-06 at cycle   8 NSaved=   8.
 NSaved= 8 IEnMin= 8 EnMin= -280.322142682970     IErMin= 8 ErrMin= 2.45D-06
 ErrMax= 2.45D-06  0.00D+00 EMaxC= 1.00D-01 BMatC= 4.07D-10 BMatP= 8.75D-08
 IDIUse=1 WtCom= 1.00D+00 WtEn= 0.00D+00
 Coeff-Com:  0.216D-04-0.495D-04-0.296D-05-0.613D-04 0.249D-02 0.639D-01
 Coeff-Com:  0.427D-01 0.891D+00
 Coeff:      0.216D-04-0.495D-04-0.296D-05-0.613D-04 0.249D-02 0.639D-01
 Coeff:      0.427D-01 0.891D+00
 Gap=     0.139 Goal=   None    Shift=    0.000
 RMSDP=8.09D-08 MaxDP=2.71D-06 DE=-1.98D-07 OVMax= 7.25D-06

 Cycle   9  Pass 1  IDiag  1:
 RMSU=  1.85D-08    CP:  9.93D-01  1.38D+00  7.37D-01  7.43D-01  8.26D-01
                    CP:  8.10D-01  2.92D-01  9.22D-01
 E= -280.322142683267     Delta-E=       -0.000000000297 Rises=F Damp=F
 DIIS: error= 3.98D-08 at cycle   9 NSaved=   9.
 NSaved= 9 IEnMin= 9 EnMin= -280.322142683267     IErMin= 9 ErrMin= 3.98D-08
 ErrMax= 3.98D-08  0.00D+00 EMaxC= 1.00D-01 BMatC= 9.93D-14 BMatP= 4.07D-10
 IDIUse=1 WtCom= 1.00D+00 WtEn= 0.00D+00
 Coeff-Com:  0.151D-05-0.317D-05-0.359D-05-0.344D-04-0.206D-03 0.112D-02
 Coeff-Com:  0.128D-02 0.499D-01 0.948D+00
 Coeff:      0.151D-05-0.317D-05-0.359D-05-0.344D-04-0.206D-03 0.112D-02
 Coeff:      0.128D-02 0.499D-01 0.948D+00
 Gap=     0.139 Goal=   None    Shift=    0.000
 RMSDP=2.07D-09 MaxDP=5.45D-08 DE=-2.97D-10 OVMax= 1.15D-07

 Error on total polarization charges =  0.00830
 SCF Done:  E(RPBE-PBE) =  -280.322142683     A.U. after    9 cycles
            NFock=  9  Conv=0.21D-08     -V/T= 2.0026
 KE= 2.796073484928D+02 PE=-9.083341448014D+02 EE= 2.296122260750D+02
 Leave Link  502 at Tue Mar 10 15:41:12 2020, MaxMem=  7516192768 cpu:              89.8 elap:               7.6
 (Enter /opt/g16/l601.exe)
 Copying SCF densities to generalized density rwf, IOpCl= 0 IROHF=0.

 **********************************************************************

            Population analysis using the SCF Density.

 **********************************************************************

 Orbital symmetries:
       Occupied  (A1) (A1) (B2) (A1) (A1) (A1) (B2) (A1) (B1) (A1)
                 (B2) (B2) (A1) (B1) (A2) (B2)
       Virtual   (B1) (A1) (A1) (B2) (A1) (B1) (A1) (B2) (A1) (B1)
                 (A2) (B2) (A1) (A1) (B2) (B2) (B1) (A1) (A1) (B2)
                 (B1) (A2) (A1) (A1) (B2) (A2) (B1) (A2) (A1) (B2)
                 (A1) (B1) (B2) (A1) (A1) (B2) (B1) (B1) (A2) (A1)
                 (B2) (A1) (A1) (B2) (B2) (B1) (A2) (B1) (A1) (A1)
                 (B2) (B2) (A1) (A1) (B2) (B1) (A2) (A1) (B1) (B2)
                 (B1) (A2) (A1) (A1) (B2) (A1) (B2) (A2) (A1) (B2)
                 (B1) (A2) (B1) (B2) (A1) (A1) (B2) (A2) (B1) (A1)
                 (B2) (A1) (B1) (A2) (B1) (A2) (A1) (A1) (B2) (A2)
                 (B1) (B2) (B1) (B1) (A2) (A1) (B2) (A1) (B2) (A1)
                 (A1) (A1) (B2) (B2) (A1) (A1) (B2) (A1)
 The electronic state is 1-A1.
 Alpha  occ. eigenvalues --  -18.71880 -18.71879 -18.71878 -14.19139  -1.12271
 Alpha  occ. eigenvalues --   -0.91109  -0.91108  -0.50498  -0.46340  -0.42975
 Alpha  occ. eigenvalues --   -0.42975  -0.24415  -0.24414  -0.23205  -0.23204
 Alpha  occ. eigenvalues --   -0.16780
 Alpha virt. eigenvalues --   -0.02900   0.12926   0.25212   0.25213   0.26182
 Alpha virt. eigenvalues --    0.32197   0.35365   0.35366   0.41811   0.45930
 Alpha virt. eigenvalues --    0.45932   0.47607   0.47608   0.52638   0.52639
 Alpha virt. eigenvalues --    0.54583   0.55258   0.61040   0.91936   0.91938
 Alpha virt. eigenvalues --    0.97711   0.97711   1.21727   1.27450   1.27450
 Alpha virt. eigenvalues --    1.48929   1.48930   1.50490   1.61429   1.61430
 Alpha virt. eigenvalues --    1.65660   1.72229   1.82928   1.92140   1.98667
 Alpha virt. eigenvalues --    1.98667   2.08040   2.08978   2.08979   2.14324
 Alpha virt. eigenvalues --    2.21197   2.21198   2.55493   2.55493   2.56556
 Alpha virt. eigenvalues --    2.65088   2.65089   2.68519   2.74340   2.94859
 Alpha virt. eigenvalues --    2.94860   3.10198   3.10199   3.55561   3.55562
 Alpha virt. eigenvalues --    3.81443   3.81443   3.93946   4.10319   4.11974
 Alpha virt. eigenvalues --    4.50893   4.50893   4.51053   4.51677   4.51677
 Alpha virt. eigenvalues --    4.94383   4.94383   5.00726   5.04734   5.05243
 Alpha virt. eigenvalues --    5.05290   5.05291   5.05501   5.09446   5.09447
 Alpha virt. eigenvalues --    5.37843   5.37844   5.39847   5.39847   5.58382
 Alpha virt. eigenvalues --    5.88271   5.88272   6.13536   6.15833   6.15834
 Alpha virt. eigenvalues --    6.16473   6.28241   6.30232   6.30232   6.32008
 Alpha virt. eigenvalues --    6.32008   6.50270   6.74171   6.75409   6.75409
 Alpha virt. eigenvalues --    6.79166   6.79166   7.02909   7.03088   7.03088
 Alpha virt. eigenvalues --    7.21663   7.35659   7.35660   7.44799  31.80546
 Alpha virt. eigenvalues --   43.51438  43.51439  43.52834
          Condensed to atoms (all electrons):
               1          2          3          4
     1  N    5.196559   0.483508   0.483508   0.483407
     2  O    0.483508   8.334028  -0.183297  -0.183281
     3  O    0.483508  -0.183297   8.334028  -0.183281
     4  O    0.483407  -0.183281  -0.183281   8.334258
 Mulliken charges:
               1
     1  N    0.353018
     2  O   -0.450958
     3  O   -0.450958
     4  O   -0.451103
 Sum of Mulliken charges =  -1.00000
 Mulliken charges with hydrogens summed into heavy atoms:
               1
     1  N    0.353018
     2  O   -0.450958
     3  O   -0.450958
     4  O   -0.451103
 Electronic spatial extent (au):  <R**2>=            192.9974
 Charge=             -1.0000 electrons
 Dipole moment (field-independent basis, Debye):
    X=              0.0000    Y=             -0.0000    Z=             -0.0002  Tot=              0.0002
 Quadrupole moment (field-independent basis, Debye-Ang):
   XX=            -22.1578   YY=            -29.7776   ZZ=            -29.7787
   XY=             -0.0000   XZ=             -0.0000   YZ=             -0.0000
 Traceless Quadrupole moment (field-independent basis, Debye-Ang):
   XX=              5.0803   YY=             -2.5396   ZZ=             -2.5407
   XY=             -0.0000   XZ=             -0.0000   YZ=             -0.0000
 Octapole moment (field-independent basis, Debye-Ang**2):
  XXX=              0.0000  YYY=              0.0000  ZZZ=             -2.9545  XYY=              0.0000
  XXY=             -0.0000  XXZ=             -0.0001  XZZ=              0.0000  YZZ=             -0.0000
  YYZ=              2.9535  XYZ=              0.0000
 Hexadecapole moment (field-independent basis, Debye-Ang**3):
 XXXX=            -18.0116 YYYY=           -112.3642 ZZZZ=           -112.3676 XXXY=             -0.0000
 XXXZ=             -0.0000 YYYX=             -0.0000 YYYZ=             -0.0000 ZZZX=             -0.0000
 ZZZY=              0.0000 XXYY=            -20.6671 XXZZ=            -20.6676 YYZZ=            -37.4555
 XXYZ=             -0.0000 YYXZ=             -0.0000 ZZXY=             -0.0000
 N-N= 1.187924275503D+02 E-N=-9.083341468947D+02  KE= 2.796073484928D+02
 Symmetry A1   KE= 1.871227275277D+02
 Symmetry A2   KE= 4.830530120699D+00
 Symmetry B1   KE= 8.461130283088D+00
 Symmetry B2   KE= 7.919296056132D+01
 No NMR shielding tensors so no spin-rotation constants.
 Leave Link  601 at Tue Mar 10 15:41:13 2020, MaxMem=  7516192768 cpu:               2.3 elap:               0.2
 (Enter /opt/g16/l701.exe)
 ... and contract with generalized density number  0.
 Compute integral first derivatives.
   4 Symmetry operations used in ECPInt.
 ECPInt:  NShTT=     990 NPrTT=    3328 LenC2=     979 LenP2D=    2800.
 LDataN:  DoStor=T MaxTD1= 7 Len=  274
 D1PCM: C-PCM CHGder 1st derivatives, ID1Alg=3 FixD1E=F DoIter=F DoCFld=F I1PDM=0.
 GePol: Maximum number of non-zero 1st derivatives   =     239
 Leave Link  701 at Tue Mar 10 15:41:13 2020, MaxMem=  7516192768 cpu:               5.2 elap:               0.5
 (Enter /opt/g16/l702.exe)
 L702 exits ... SP integral derivatives will be done elsewhere.
 Leave Link  702 at Tue Mar 10 15:41:13 2020, MaxMem=  7516192768 cpu:               0.2 elap:               0.0
 (Enter /opt/g16/l703.exe)
 Integral derivatives from FoFJK, PRISM(SPDF).
 Compute integral first derivatives, UseDBF=T ICtDFT=           0.
 Calling FoFJK, ICntrl=      2527 FMM=F ISym2X=1 I1Cent= 4 IOpClX= 0 NMat=1 NMatS=1 NMatT=0.
 FoFJK:  IHMeth= 1 ICntrl=    2527 DoSepK=F KAlg= 0 I1Cent=           4 FoldK=F
 IRaf=         0 NMat=       1 IRICut=       1 DoRegI=T DoRafI=F ISym2E= 1 IDoP0=0 IntGTp=1.
 FoFCou: FMM=F IPFlag=           0 FMFlag=      100000 FMFlg1=         800
         NFxFlg=           0 DoJE=F BraDBF=F KetDBF=T FulRan=T
         wScrn=  0.000000 ICntrl=      2527 IOpCl=  0 I1Cent=           4 NGrid=           0
         NMat0=    1 NMatS0=      1 NMatT0=    0 NMatD0=    1 NMtDS0=    0 NMtDT0=    0
 Petite list used in FoFCou.
 Leave Link  703 at Tue Mar 10 15:41:13 2020, MaxMem=  7516192768 cpu:               3.8 elap:               0.3
 (Enter /opt/g16/l716.exe)
 Dipole        = 1.95345351D-16-2.49104556D-17-9.33643682D-05
 ***** Axes restored to original set *****
 -------------------------------------------------------------------
 Center     Atomic                   Forces (Hartrees/Bohr)
 Number     Number              X              Y              Z
 -------------------------------------------------------------------
      1        7          -0.000029058    0.000000000    0.000000000
      2        8          -0.016164698    0.019042475   -0.020709963
      3        8          -0.016164698   -0.019042475    0.020709963
      4        8           0.032358453   -0.000000000    0.000000000
 -------------------------------------------------------------------
 Cartesian Forces:  Max     0.032358453 RMS     0.016208799
 Leave Link  716 at Tue Mar 10 15:41:14 2020, MaxMem=  7516192768 cpu:               0.3 elap:               0.0
 (Enter /opt/g16/l103.exe)

 GradGradGradGradGradGradGradGradGradGradGradGradGradGradGradGradGradGrad
 Berny optimization.
 FormGI is forming the generalized inverse of G from B-inverse, IUseBI=4.
 Internal  Forces:  Max     0.032447053 RMS     0.021222323
 Search for a local minimum.
 Step number   1 out of a maximum of   20
 All quantities printed in internal units (Hartrees-Bohrs-Radians)
 RMS Force = .21222D-01 SwitMx=.10000D-02 MixMth= 1
 Mixed Optimization -- RFO/linear search
 Second derivative matrix not updated -- first step.
 The second derivative matrix:
                          R1        R2        R3        A1        A2
           R1           0.86194
           R2           0.00000   0.86194
           R3           0.00000   0.00000   0.86194
           A1           0.00000   0.00000   0.00000   0.25000
           A2           0.00000   0.00000   0.00000   0.00000   0.25000
           A3           0.00000   0.00000   0.00000   0.00000   0.00000
           D1           0.00000   0.00000   0.00000   0.00000   0.00000
                          A3        D1
           A3           0.25000
           D1           0.00000   0.03382
 ITU=  0
     Eigenvalues ---    0.03382   0.25000   0.25000   0.86194   0.86194
     Eigenvalues ---    0.86194
 RFO step:  Lambda=-3.64235156D-03 EMin= 3.38246100D-02
 Linear search not attempted -- first point.
 Iteration  1 RMS(Cart)=  0.02451895 RMS(Int)=  0.00000305
 Iteration  2 RMS(Cart)=  0.00000331 RMS(Int)=  0.00000000
 Iteration  3 RMS(Cart)=  0.00000000 RMS(Int)=  0.00000000
 ITry= 1 IFail=0 DXMaxC= 3.72D-02 DCOld= 1.00D+10 DXMaxT= 3.00D-01 DXLimC= 3.00D+00 Rises=F
 ClnCor:  largest displacement from symmetrization is 2.74D-12 for atom     1.
 Variable       Old X    -DE/DX   Delta X   Delta X   Delta X     New X
                                 (Linear)    (Quad)   (Total)
    R1        2.34738   0.03245   0.00000   0.03749   0.03749   2.38487
    R2        2.34738   0.03245   0.00000   0.03749   0.03749   2.38487
    R3        2.34738   0.03236   0.00000   0.03738   0.03738   2.38476
    A1        2.09440   0.00011   0.00000   0.00042   0.00042   2.09482
    A2        2.09439  -0.00005   0.00000  -0.00021  -0.00021   2.09418
    A3        2.09439  -0.00005   0.00000  -0.00021  -0.00021   2.09418
    D1        3.14159   0.00000   0.00000   0.00000  -0.00000   3.14159
         Item               Value     Threshold  Converged?
 Maximum Force            0.032447     0.000450     NO 
 RMS     Force            0.021222     0.000300     NO 
 Maximum Displacement     0.037193     0.001800     NO 
 RMS     Displacement     0.024519     0.001200     NO 
 Predicted change in Energy=-1.828839D-03
 Lowest energy point so far.  Saving SCF results.
 GradGradGradGradGradGradGradGradGradGradGradGradGradGradGradGradGradGrad

 Leave Link  103 at Tue Mar 10 15:41:14 2020, MaxMem=  7516192768 cpu:               0.1 elap:               0.0
 (Enter /opt/g16/l202.exe)
                          Input orientation:                          
 ---------------------------------------------------------------------
 Center     Atomic      Atomic             Coordinates (Angstroms)
 Number     Number       Type             X           Y           Z
 ---------------------------------------------------------------------
      1          7           0        1.054889    0.046950   -0.040530
      2          8           0        0.424110    0.786797   -0.845163
      3          8           0        0.424110   -0.692897    0.764103
      4          8           0        2.316851    0.046950   -0.040530
 ---------------------------------------------------------------------
                    Distance matrix (angstroms):
                    1          2          3          4
     1  N    0.000000
     2  O    1.262019   0.000000
     3  O    1.262019   2.186146   0.000000
     4  O    1.261962   2.185699   2.185699   0.000000
 Stoichiometry    NO3(1-)
 Framework group  C2V[C2(NO),SGV(O2)]
 Deg. of freedom     3
 Full point group                 C2V     NOp   4
 RotChk:  IX=0 Diff= 5.67D-16
 Largest Abelian subgroup         C2V     NOp   4
 Largest concise Abelian subgroup C2      NOp   2
                         Standard orientation:                         
 ---------------------------------------------------------------------
 Center     Atomic      Atomic             Coordinates (Angstroms)
 Number     Number       Type             X           Y           Z
 ---------------------------------------------------------------------
      1          7           0        0.000000   -0.000000   -0.000104
      2          8           0        0.000000    1.093073   -0.630884
      3          8           0       -0.000000   -1.093073   -0.630884
      4          8           0       -0.000000    0.000000    1.261858
 ---------------------------------------------------------------------
 Rotational constants (GHZ):          13.2295109          13.2223008           6.6129524
 Leave Link  202 at Tue Mar 10 15:41:14 2020, MaxMem=  7516192768 cpu:               0.1 elap:               0.0
 (Enter /opt/g16/l301.exe)
 Standard basis: def2TZVP (5D, 7F)
 Ernie: Thresh=  0.10000D-02 Tol=  0.10000D-05 Strict=F.
 There are    59 symmetry adapted cartesian basis functions of A1  symmetry.
 There are    17 symmetry adapted cartesian basis functions of A2  symmetry.
 There are    27 symmetry adapted cartesian basis functions of B1  symmetry.
 There are    41 symmetry adapted cartesian basis functions of B2  symmetry.
 There are    49 symmetry adapted basis functions of A1  symmetry.
 There are    16 symmetry adapted basis functions of A2  symmetry.
 There are    24 symmetry adapted basis functions of B1  symmetry.
 There are    35 symmetry adapted basis functions of B2  symmetry.
   124 basis functions,   204 primitive gaussians,   144 cartesian basis functions
    16 alpha electrons       16 beta electrons
       nuclear repulsion energy       116.9268965581 Hartrees.
 IExCor= 1009 DFT=T Ex=PBE Corr=PBE ExCW=0 ScaHFX=  0.000000
 ScaDFX=  1.000000  1.000000  1.000000  1.000000 ScalE2=  1.000000  1.000000
 IRadAn=      5 IRanWt=     -1 IRanGd=            0 ICorTp=0 IEmpDi=  4
 NAtoms=    4 NActive=    4 NUniq=    3 SFac= 1.78D+00 NAtFMM=   60 NAOKFM=F Big=F
 Integral buffers will be    131072 words long.
 Raffenetti 2 integral format.
 Two-electron integral symmetry is turned on.
 Standard density basis: W06 (5D, 7F)
   196 Density fitting functions
 There are   196 symmetry adapted density basis functions of A   symmetry.
 ------------------------------------------------------------------------------
 Polarizable Continuum Model (PCM)
 =================================
 Model                : C-PCM.
 Atomic radii         : UFF (Universal Force Field).
 Polarization charges : Total charges.
 Charge compensation  : None.
 Solution method      : On-the-fly selection.
 Cavity type          : Scaled VdW (van der Waals Surface) (Alpha=1.100).
 Cavity algorithm     : GePol (No added spheres)
                        Default sphere list used, NSphG=    4.
                        Lebedev-Laikov grids with approx.  5.0 points / Ang**2.
                        Smoothing algorithm: York/Karplus (Gamma=1.0000).
                        Polarization charges: spherical gaussians, with
                                              point-specific exponents (IZeta= 3).
                        Self-potential: point-specific (ISelfS= 7).
                        Self-field    : sphere-specific E.n sum rule (ISelfD= 2).
 1st derivatives      : Analytical E(r).r(x)/FMM algorithm (CHGder, D1EAlg=3).
                        Cavity 1st derivative terms included.
 Solvent              : Generic,
                        Eps                           = 999.000000
                        Eps(infinity)                 =   0.000000
                        RSolv                         =   0.000000 Ang.
                        Molar volume                  =   0.000000 cm**3/mol
                        Thermal expansion coefficient =   0.000000 K**-1
                        Absolute temperature          = 298.150000 K
                        Numeral density               =   0.000000 Ang**-3
                        Hydrogen bond acidity         =   0.000000
                        Hydrogen bond basicity        =   0.000000
                        Surface tension at interface  =   0.000000 (cal/mol)*Ang**-2
                        Carbon aromaticity            =   0.000000
                        Electronegative halogenicity  =   0.000000
 ------------------------------------------------------------------------------
 Spheres list:
 ISph  on   Nord     Re0    Alpha      Xe            Ye            Ze
    1   N      1    1.8300  1.100      0.000000     -0.000000     -0.000104
    2   O      2    1.7500  1.100      0.000000      1.093073     -0.630884
    3   O      3    1.7500  1.100     -0.000000     -1.093073     -0.630884
    4   O      4    1.7500  1.100      0.000000     -0.000000      1.261858
 ------------------------------------------------------------------------------
 GePol: Number of generator spheres                  =       4
 GePol: Total number of spheres                      =       4
 GePol: Number of exposed spheres                    =       4 (100.00%)
 GePol: Number of points                             =     667
 GePol: Average weight of points                     =       0.14
 GePol: Minimum weight of points                     =   0.34D-06
 GePol: Maximum weight of points                     =    0.18303
 GePol: Number of points with low weight             =      20
 GePol: Fraction of low-weight points (<1% of avg)   =       3.00%
 GePol: Cavity surface area                          =     90.266 Ang**2
 GePol: Cavity volume                                =     72.158 Ang**3
 Leave Link  301 at Tue Mar 10 15:41:14 2020, MaxMem=  7516192768 cpu:               0.8 elap:               0.1
 (Enter /opt/g16/l302.exe)
 NPDir=0 NMtPBC=     1 NCelOv=     1 NCel=       1 NClECP=     1 NCelD=      1
         NCelK=      1 NCelE2=     1 NClLst=     1 CellRange=     0.0.
 One-electron integrals computed using PRISM.
 One-electron integral symmetry used in STVInt
   4 Symmetry operations used in ECPInt.
 ECPInt:  NShTT=     990 NPrTT=    3328 LenC2=     979 LenP2D=    2797.
 LDataN:  DoStor=T MaxTD1= 6 Len=  172
 NBasis=   124 RedAO= T EigKep=  1.46D-03  NBF=    49    16    24    35
 NBsUse=   124 1.00D-06 EigRej= -1.00D+00 NBFU=    49    16    24    35
 NBasis=      124 NBas6D=      144 NTT=        7750   NTT6D=    10440
 NDBShl=       60 NDBF=        196 NDBF6D=      244  NNucDB=        0
 IDenFi=        2 ISolve=        0 FullAP=F BlkAPC=T NucTyp=        0
 TolInv= 1.00D-06 TolIt=  1.00D-10 IR12=0.
 FoFCou: FMM=F IPFlag=           0 FMFlag=           0 FMFlg1=           0
         NFxFlg=           0 DoJE=F BraDBF=T KetDBF=T FulRan=T
         wScrn=  0.000000 ICntrl=       600 IOpCl=  3 I1Cent=           6 NGrid=           0
         NMat0=    1 NMatS0=    244 NMatT0=    0 NMatD0=    1 NMtDS0=    0 NMtDT0=    0
 Petite list used in FoFCou.
 DBF EigKep=  1.73D-05 EigRej= -1.00D+00
 NDBF=    196  NBFD=   196
 NRank=   196 NBFDU=   196
 S*AI*S=  5.58237301638    
 Precomputing XC quadrature grid using
 IXCGrd= 4 IRadAn=           5 IRanWt=          -1 IRanGd=           0 AccXCQ= 0.00D+00.
 Generated NRdTot=       0 NPtTot=           0 NUsed=           0 NTot=          32
 NSgBfM=   144   144   144   144   144 MxSgAt=     4 MxSgA2=     4.
 Leave Link  302 at Tue Mar 10 15:41:14 2020, MaxMem=  7516192768 cpu:               3.0 elap:               0.3
 (Enter /opt/g16/l303.exe)
 DipDrv:  MaxL=1.
 Leave Link  303 at Tue Mar 10 15:41:14 2020, MaxMem=  7516192768 cpu:               0.3 elap:               0.0
 (Enter /opt/g16/l401.exe)
 Initial guess from the checkpoint file:  "no3.chk"
 B after Tr=     0.000000   -0.000000   -0.000000
         Rot=    1.000000    0.000000    0.000000    0.000000 Ang=   0.00 deg.
 Guess basis will be translated and rotated to current coordinates.
 Recovered     1 saved fitting vectors from chk file.
 JPrj=2 DoOrth=T DoCkMO=T.
 Initial guess orbital symmetries:
       Occupied  (A1) (A1) (B2) (A1) (A1) (A1) (B2) (A1) (B1) (A1)
                 (B2) (B2) (A1) (B1) (A2) (B2)
       Virtual   (B1) (A1) (A1) (B2) (A1) (B1) (A1) (B2) (A1) (B1)
                 (A2) (B2) (A1) (A1) (B2) (B2) (B1) (A1) (A1) (B2)
                 (B1) (A2) (A1) (A1) (B2) (A2) (B1) (A2) (A1) (B2)
                 (A1) (B1) (B2) (A1) (A1) (B2) (B1) (B1) (A2) (A1)
                 (B2) (A1) (A1) (B2) (B2) (B1) (A2) (B1) (A1) (A1)
                 (B2) (B2) (A1) (A1) (B2) (B1) (A2) (A1) (B1) (B2)
                 (B1) (A2) (A1) (A1) (B2) (A1) (B2) (A2) (A1) (B2)
                 (B1) (A2) (B1) (B2) (A1) (A1) (B2) (A2) (B1) (A1)
                 (B2) (A1) (B1) (A2) (B1) (A2) (A1) (A1) (B2) (A2)
                 (B1) (B2) (B1) (B1) (A2) (A1) (B2) (A1) (B2) (A1)
                 (A1) (A1) (B2) (B2) (A1) (A1) (B2) (A1)
 The electronic state of the initial guess is 1-A1.
 Generating alternative initial guess.
 ExpMin= 1.36D-01 ExpMax= 2.70D+04 ExpMxC= 9.22D+02 IAcc=3 IRadAn=         5 AccDes= 0.00D+00
 Harris functional with IExCor= 1009 and IRadAn=       5 diagonalized for initial guess.
 HarFok:  IExCor= 1009 AccDes= 0.00D+00 IRadAn=         5 IDoV= 1 UseB2=F ITyADJ=14
 ICtDFT=  3500011 ScaDFX=  1.000000  1.000000  1.000000  1.000000
 FoFCou: FMM=F IPFlag=           0 FMFlag=      100000 FMFlg1=           0
         NFxFlg=           0 DoJE=T BraDBF=F KetDBF=T FulRan=T
         wScrn=  0.000000 ICntrl=       500 IOpCl=  0 I1Cent=   200000004 NGrid=           0
         NMat0=    1 NMatS0=      1 NMatT0=    0 NMatD0=    1 NMtDS0=    0 NMtDT0=    0
 Petite list used in FoFCou.
 Harris En= -280.422834581099    
 Leave Link  401 at Tue Mar 10 15:41:14 2020, MaxMem=  7516192768 cpu:               3.7 elap:               0.3
 (Enter /opt/g16/l502.exe)
 Density fitting will be used, IDenFit= 2 NucTyp=  0.
 Integral symmetry usage will be decided dynamically.
 Closed shell SCF:
 Using DIIS extrapolation, IDIIS=  1040.
 NGot=  7516192768 LenX=  7516146974 LenY=  7516125797
 Requested convergence on RMS density matrix=1.00D-08 within 128 cycles.
 Requested convergence on MAX density matrix=1.00D-06.
 Requested convergence on             energy=1.00D-06.
 No special actions if energy rises.
 Fock matrices will be formed incrementally for  20 cycles.

 Cycle   1  Pass 1  IDiag  1:
 FoFCou: FMM=F IPFlag=           0 FMFlag=      100000 FMFlg1=           0
         NFxFlg=           0 DoJE=T BraDBF=T KetDBF=F FulRan=T
         wScrn=  0.000000 ICntrl=       500 IOpCl=  0 I1Cent=           5 NGrid=           0
         NMat0=    1 NMatS0=      1 NMatT0=    0 NMatD0=    1 NMtDS0=    0 NMtDT0=    0
 Petite list used in FoFCou.
 FoFJK:  IHMeth= 1 ICntrl=     500 DoSepK=F KAlg= 0 I1Cent=           4 FoldK=F
 IRaf= 980000000 NMat=       1 IRICut=       1 DoRegI=T DoRafI=F ISym2E= 1 IDoP0=0 IntGTp=1.
 Inv3:  Mode=1 IEnd=     1334667.
 Iteration    1 A*A^-1 deviation from unit magnitude is 2.44D-15 for      2.
 Iteration    1 A*A^-1 deviation from orthogonality  is 1.35D-15 for    347    152.
 Iteration    1 A^-1*A deviation from unit magnitude is 2.44D-15 for      2.
 Iteration    1 A^-1*A deviation from orthogonality  is 1.25D-15 for    347    152.
 E= -280.323487825608    
 DIIS: error= 3.04D-03 at cycle   1 NSaved=   1.
 NSaved= 1 IEnMin= 1 EnMin= -280.323487825608     IErMin= 1 ErrMin= 3.04D-03
 ErrMax= 3.04D-03  0.00D+00 EMaxC= 1.00D-01 BMatC= 1.09D-03 BMatP= 1.09D-03
 IDIUse=3 WtCom= 9.70D-01 WtEn= 3.04D-02
 Coeff-Com:  0.100D+01
 Coeff-En:   0.100D+01
 Coeff:      0.100D+01
 Gap=     0.138 Goal=   None    Shift=    0.000
 GapD=    0.138 DampG=1.000 DampE=1.000 DampFc=1.0000 IDamp=-1.
 RMSDP=3.38D-04 MaxDP=7.82D-03              OVMax= 1.05D-02

 Cycle   2  Pass 1  IDiag  1:
 RMSU=  3.38D-04    CP:  9.99D-01
 E= -280.324164756042     Delta-E=       -0.000676930434 Rises=F Damp=F
 DIIS: error= 1.08D-03 at cycle   2 NSaved=   2.
 NSaved= 2 IEnMin= 2 EnMin= -280.324164756042     IErMin= 2 ErrMin= 1.08D-03
 ErrMax= 1.08D-03  0.00D+00 EMaxC= 1.00D-01 BMatC= 9.56D-05 BMatP= 1.09D-03
 IDIUse=3 WtCom= 9.89D-01 WtEn= 1.08D-02
 Coeff-Com:  0.155D+00 0.845D+00
 Coeff-En:   0.000D+00 0.100D+01
 Coeff:      0.154D+00 0.846D+00
 Gap=     0.131 Goal=   None    Shift=    0.000
 RMSDP=9.10D-05 MaxDP=2.53D-03 DE=-6.77D-04 OVMax= 5.68D-03

 Cycle   3  Pass 1  IDiag  1:
 RMSU=  8.88D-05    CP:  1.00D+00  1.05D+00
 E= -280.324132403942     Delta-E=        0.000032352100 Rises=F Damp=F
 DIIS: error= 1.55D-03 at cycle   3 NSaved=   3.
 NSaved= 3 IEnMin= 2 EnMin= -280.324164756042     IErMin= 2 ErrMin= 1.08D-03
 ErrMax= 1.55D-03  0.00D+00 EMaxC= 1.00D-01 BMatC= 1.33D-04 BMatP= 9.56D-05
 IDIUse=3 WtCom= 2.03D-01 WtEn= 7.97D-01
 Coeff-Com:  0.222D-01 0.544D+00 0.434D+00
 Coeff-En:   0.000D+00 0.581D+00 0.419D+00
 Coeff:      0.449D-02 0.574D+00 0.422D+00
 Gap=     0.133 Goal=   None    Shift=    0.000
 RMSDP=4.76D-05 MaxDP=1.61D-03 DE= 3.24D-05 OVMax= 4.00D-03

 Cycle   4  Pass 1  IDiag  1:
 RMSU=  2.28D-05    CP:  9.99D-01  1.03D+00  5.40D-01
 E= -280.324225996641     Delta-E=       -0.000093592699 Rises=F Damp=F
 DIIS: error= 3.61D-04 at cycle   4 NSaved=   4.
 NSaved= 4 IEnMin= 4 EnMin= -280.324225996641     IErMin= 4 ErrMin= 3.61D-04
 ErrMax= 3.61D-04  0.00D+00 EMaxC= 1.00D-01 BMatC= 1.13D-05 BMatP= 9.56D-05
 IDIUse=3 WtCom= 9.96D-01 WtEn= 3.61D-03
 Coeff-Com:  0.553D-02 0.319D+00 0.277D+00 0.399D+00
 Coeff-En:   0.000D+00 0.000D+00 0.000D+00 0.100D+01
 Coeff:      0.551D-02 0.318D+00 0.276D+00 0.401D+00
 Gap=     0.133 Goal=   None    Shift=    0.000
 RMSDP=1.57D-05 MaxDP=2.64D-04 DE=-9.36D-05 OVMax= 6.34D-04

 Cycle   5  Pass 1  IDiag  1:
 RMSU=  4.32D-06    CP:  9.99D-01  1.02D+00  4.64D-01  4.36D-01
 E= -280.324233045911     Delta-E=       -0.000007049270 Rises=F Damp=F
 DIIS: error= 3.57D-05 at cycle   5 NSaved=   5.
 NSaved= 5 IEnMin= 5 EnMin= -280.324233045911     IErMin= 5 ErrMin= 3.57D-05
 ErrMax= 3.57D-05  0.00D+00 EMaxC= 1.00D-01 BMatC= 8.26D-08 BMatP= 1.13D-05
 IDIUse=1 WtCom= 1.00D+00 WtEn= 0.00D+00
 Coeff-Com:  0.661D-04 0.284D-01 0.384D-01 0.961D-01 0.837D+00
 Coeff:      0.661D-04 0.284D-01 0.384D-01 0.961D-01 0.837D+00
 Gap=     0.133 Goal=   None    Shift=    0.000
 RMSDP=2.13D-06 MaxDP=3.71D-05 DE=-7.05D-06 OVMax= 1.21D-04

 Cycle   6  Pass 1  IDiag  1:
 RMSU=  1.13D-06    CP:  9.99D-01  1.02D+00  4.79D-01  4.52D-01  7.74D-01
 E= -280.324233085809     Delta-E=       -0.000000039898 Rises=F Damp=F
 DIIS: error= 2.17D-05 at cycle   6 NSaved=   6.
 NSaved= 6 IEnMin= 6 EnMin= -280.324233085809     IErMin= 6 ErrMin= 2.17D-05
 ErrMax= 2.17D-05  0.00D+00 EMaxC= 1.00D-01 BMatC= 3.18D-08 BMatP= 8.26D-08
 IDIUse=1 WtCom= 1.00D+00 WtEn= 0.00D+00
 Coeff-Com: -0.881D-05 0.182D-01 0.258D-01 0.678D-01 0.620D+00 0.269D+00
 Coeff:     -0.881D-05 0.182D-01 0.258D-01 0.678D-01 0.620D+00 0.269D+00
 Gap=     0.133 Goal=   None    Shift=    0.000
 RMSDP=9.48D-07 MaxDP=2.67D-05 DE=-3.99D-08 OVMax= 9.48D-05

 Cycle   7  Pass 1  IDiag  1:
 RMSU=  2.98D-07    CP:  9.99D-01  1.02D+00  4.79D-01  4.52D-01  7.99D-01
                    CP:  2.08D-01
 E= -280.324233109178     Delta-E=       -0.000000023369 Rises=F Damp=F
 DIIS: error= 3.26D-06 at cycle   7 NSaved=   7.
 NSaved= 7 IEnMin= 7 EnMin= -280.324233109178     IErMin= 7 ErrMin= 3.26D-06
 ErrMax= 3.26D-06  0.00D+00 EMaxC= 1.00D-01 BMatC= 8.70D-10 BMatP= 3.18D-08
 IDIUse=1 WtCom= 1.00D+00 WtEn= 0.00D+00
 Coeff-Com: -0.191D-04 0.484D-02 0.661D-02 0.190D-01 0.172D+00 0.157D+00
 Coeff-Com:  0.640D+00
 Coeff:     -0.191D-04 0.484D-02 0.661D-02 0.190D-01 0.172D+00 0.157D+00
 Coeff:      0.640D+00
 Gap=     0.133 Goal=   None    Shift=    0.000
 RMSDP=1.44D-07 MaxDP=3.38D-06 DE=-2.34D-08 OVMax= 1.26D-05

 Cycle   8  Pass 1  IDiag  1:
 RMSU=  4.15D-08    CP:  9.99D-01  1.02D+00  4.79D-01  4.54D-01  8.02D-01
                    CP:  2.98D-01  7.30D-01
 E= -280.324233109818     Delta-E=       -0.000000000640 Rises=F Damp=F
 DIIS: error= 2.09D-07 at cycle   8 NSaved=   8.
 NSaved= 8 IEnMin= 8 EnMin= -280.324233109818     IErMin= 8 ErrMin= 2.09D-07
 ErrMax= 2.09D-07  0.00D+00 EMaxC= 1.00D-01 BMatC= 3.22D-12 BMatP= 8.70D-10
 IDIUse=1 WtCom= 1.00D+00 WtEn= 0.00D+00
 Coeff-Com: -0.910D-06 0.139D-03 0.805D-04 0.831D-03 0.685D-02 0.132D-01
 Coeff-Com:  0.814D-01 0.897D+00
 Coeff:     -0.910D-06 0.139D-03 0.805D-04 0.831D-03 0.685D-02 0.132D-01
 Coeff:      0.814D-01 0.897D+00
 Gap=     0.133 Goal=   None    Shift=    0.000
 RMSDP=8.27D-09 MaxDP=2.76D-07 DE=-6.40D-10 OVMax= 6.34D-07

 Error on total polarization charges =  0.00829
 SCF Done:  E(RPBE-PBE) =  -280.324233110     A.U. after    8 cycles
            NFock=  8  Conv=0.83D-08     -V/T= 2.0032
 KE= 2.794240062952D+02 PE=-9.044815766559D+02 EE= 2.278064406929D+02
 Leave Link  502 at Tue Mar 10 15:41:21 2020, MaxMem=  7516192768 cpu:              81.6 elap:               6.9
 (Enter /opt/g16/l701.exe)
 ... and contract with generalized density number  0.
 Compute integral first derivatives.
   4 Symmetry operations used in ECPInt.
 ECPInt:  NShTT=     990 NPrTT=    3328 LenC2=     979 LenP2D=    2797.
 LDataN:  DoStor=T MaxTD1= 7 Len=  274
 D1PCM: C-PCM CHGder 1st derivatives, ID1Alg=3 FixD1E=F DoIter=F DoCFld=F I1PDM=0.
 GePol: Maximum number of non-zero 1st derivatives   =     235
 Leave Link  701 at Tue Mar 10 15:41:22 2020, MaxMem=  7516192768 cpu:               5.2 elap:               0.5
 (Enter /opt/g16/l702.exe)
 L702 exits ... SP integral derivatives will be done elsewhere.
 Leave Link  702 at Tue Mar 10 15:41:22 2020, MaxMem=  7516192768 cpu:               0.2 elap:               0.0
 (Enter /opt/g16/l703.exe)
 Integral derivatives from FoFJK, PRISM(SPDF).
 Compute integral first derivatives, UseDBF=T ICtDFT=           0.
 Calling FoFJK, ICntrl=      2527 FMM=F ISym2X=1 I1Cent= 4 IOpClX= 0 NMat=1 NMatS=1 NMatT=0.
 FoFJK:  IHMeth= 1 ICntrl=    2527 DoSepK=F KAlg= 0 I1Cent=           4 FoldK=F
 IRaf=         0 NMat=       1 IRICut=       1 DoRegI=T DoRafI=F ISym2E= 1 IDoP0=0 IntGTp=1.
 FoFCou: FMM=F IPFlag=           0 FMFlag=      100000 FMFlg1=         800
         NFxFlg=           0 DoJE=F BraDBF=F KetDBF=T FulRan=T
         wScrn=  0.000000 ICntrl=      2527 IOpCl=  0 I1Cent=           4 NGrid=           0
         NMat0=    1 NMatS0=      1 NMatT0=    0 NMatD0=    1 NMtDS0=    0 NMtDT0=    0
 Petite list used in FoFCou.
 Leave Link  703 at Tue Mar 10 15:41:22 2020, MaxMem=  7516192768 cpu:               3.8 elap:               0.3
 (Enter /opt/g16/l716.exe)
 Dipole        = 7.79131530D-17-3.12505653D-17-4.57942098D-04
 ***** Axes restored to original set *****
 -------------------------------------------------------------------
 Center     Atomic                   Forces (Hartrees/Bohr)
 Number     Number              X              Y              Z
 -------------------------------------------------------------------
      1        7           0.000009989    0.000000000   -0.000000000
      2        8          -0.002729577    0.003185428   -0.003464366
      3        8          -0.002729577   -0.003185428    0.003464366
      4        8           0.005449166    0.000000000   -0.000000000
 -------------------------------------------------------------------
 Cartesian Forces:  Max     0.005449166 RMS     0.002721707
 Leave Link  716 at Tue Mar 10 15:41:22 2020, MaxMem=  7516192768 cpu:               0.2 elap:               0.0
 (Enter /opt/g16/l103.exe)

 GradGradGradGradGradGradGradGradGradGradGradGradGradGradGradGradGradGrad
 Berny optimization.
 Using GEDIIS/GDIIS optimizer.
 FormGI is forming the generalized inverse of G from B-inverse, IUseBI=4.
 Internal  Forces:  Max     0.005449166 RMS     0.003563554
 Search for a local minimum.
 Step number   2 out of a maximum of   20
 All quantities printed in internal units (Hartrees-Bohrs-Radians)
 RMS Force = .35636D-02 SwitMx=.10000D-02 MixMth= 1
 Mixed Optimization -- RFO/linear search
 Update second derivatives using D2CorX and points    1    2
 DE= -2.09D-03 DEPred=-1.83D-03 R= 1.14D+00
 TightC=F SS=  1.41D+00  RLast= 6.49D-02 DXNew= 5.0454D-01 1.9461D-01
 Trust test= 1.14D+00 RLast= 6.49D-02 DXMaxT set to 3.00D-01
 The second derivative matrix:
                          R1        R2        R3        A1        A2
           R1           0.81475
           R2          -0.04718   0.81475
           R3          -0.04726  -0.04726   0.81460
           A1           0.00018   0.00018   0.00018   0.25000
           A2          -0.00009  -0.00009  -0.00009  -0.00000   0.25000
           A3          -0.00009  -0.00009  -0.00009  -0.00000   0.00000
           D1           0.00000   0.00000   0.00000   0.00000  -0.00000
                          A3        D1
           A3           0.25000
           D1          -0.00000   0.03382
 ITU=  1  0
 Use linear search instead of GDIIS.
     Eigenvalues ---    0.03382   0.25000   0.25000   0.72023   0.86194
     Eigenvalues ---    0.86194
 RFO step:  Lambda=-1.06262405D-08 EMin= 3.38246100D-02
 Quartic linear search produced a step of  0.22097.
 Iteration  1 RMS(Cart)=  0.00541808 RMS(Int)=  0.00000011
 Iteration  2 RMS(Cart)=  0.00000012 RMS(Int)=  0.00000001
 ITry= 1 IFail=0 DXMaxC= 8.32D-03 DCOld= 1.00D+10 DXMaxT= 3.00D-01 DXLimC= 3.00D+00 Rises=F
 ClnCor:  largest displacement from symmetrization is 7.72D-09 for atom     1.
 Variable       Old X    -DE/DX   Delta X   Delta X   Delta X     New X
                                 (Linear)    (Quad)   (Total)
    R1        2.38487   0.00544   0.00828  -0.00001   0.00827   2.39314
    R2        2.38487   0.00544   0.00828  -0.00001   0.00827   2.39314
    R3        2.38476   0.00545   0.00826   0.00002   0.00828   2.39305
    A1        2.09482  -0.00002   0.00009  -0.00016  -0.00007   2.09475
    A2        2.09418   0.00001  -0.00005   0.00008   0.00004   2.09422
    A3        2.09418   0.00001  -0.00005   0.00008   0.00004   2.09422
    D1        3.14159   0.00000   0.00000   0.00000   0.00000   3.14159
         Item               Value     Threshold  Converged?
 Maximum Force            0.005449     0.000450     NO 
 RMS     Force            0.003564     0.000300     NO 
 Maximum Displacement     0.008316     0.001800     NO 
 RMS     Displacement     0.005418     0.001200     NO 
 Predicted change in Energy=-6.115473D-05
 Lowest energy point so far.  Saving SCF results.
 GradGradGradGradGradGradGradGradGradGradGradGradGradGradGradGradGradGrad

 Leave Link  103 at Tue Mar 10 15:41:22 2020, MaxMem=  7516192768 cpu:               0.1 elap:               0.0
 (Enter /opt/g16/l202.exe)
                          Input orientation:                          
 ---------------------------------------------------------------------
 Center     Atomic      Atomic             Coordinates (Angstroms)
 Number     Number       Type             X           Y           Z
 ---------------------------------------------------------------------
      1          7           0        1.054907    0.046950   -0.040530
      2          8           0        0.421901    0.789348   -0.847938
      3          8           0        0.421901   -0.695448    0.766878
      4          8           0        2.321252    0.046950   -0.040530
 ---------------------------------------------------------------------
                    Distance matrix (angstroms):
                    1          2          3          4
     1  N    0.000000
     2  O    1.266396   0.000000
     3  O    1.266396   2.193684   0.000000
     4  O    1.266346   2.193308   2.193308   0.000000
 Stoichiometry    NO3(1-)
 Framework group  C2V[C2(NO),SGV(O2)]
 Deg. of freedom     3
 Full point group                 C2V     NOp   4
 RotChk:  IX=0 Diff= 6.12D-16
 Largest Abelian subgroup         C2V     NOp   4
 Largest concise Abelian subgroup C2      NOp   2
                         Standard orientation:                         
 ---------------------------------------------------------------------
 Center     Atomic      Atomic             Coordinates (Angstroms)
 Number     Number       Type             X           Y           Z
 ---------------------------------------------------------------------
      1          7           0       -0.000000   -0.000000   -0.000086
      2          8           0        0.000000    1.096842   -0.633092
      3          8           0       -0.000000   -1.096842   -0.633092
      4          8           0        0.000000    0.000000    1.266260
 ---------------------------------------------------------------------
 Rotational constants (GHZ):          13.1375903          13.1315815           6.5672926
 Leave Link  202 at Tue Mar 10 15:41:22 2020, MaxMem=  7516192768 cpu:               0.1 elap:               0.0
 (Enter /opt/g16/l301.exe)
 Standard basis: def2TZVP (5D, 7F)
 Ernie: Thresh=  0.10000D-02 Tol=  0.10000D-05 Strict=F.
 There are    59 symmetry adapted cartesian basis functions of A1  symmetry.
 There are    17 symmetry adapted cartesian basis functions of A2  symmetry.
 There are    27 symmetry adapted cartesian basis functions of B1  symmetry.
 There are    41 symmetry adapted cartesian basis functions of B2  symmetry.
 There are    49 symmetry adapted basis functions of A1  symmetry.
 There are    16 symmetry adapted basis functions of A2  symmetry.
 There are    24 symmetry adapted basis functions of B1  symmetry.
 There are    35 symmetry adapted basis functions of B2  symmetry.
   124 basis functions,   204 primitive gaussians,   144 cartesian basis functions
    16 alpha electrons       16 beta electrons
       nuclear repulsion energy       116.5225301099 Hartrees.
 IExCor= 1009 DFT=T Ex=PBE Corr=PBE ExCW=0 ScaHFX=  0.000000
 ScaDFX=  1.000000  1.000000  1.000000  1.000000 ScalE2=  1.000000  1.000000
 IRadAn=      5 IRanWt=     -1 IRanGd=            0 ICorTp=0 IEmpDi=  4
 NAtoms=    4 NActive=    4 NUniq=    3 SFac= 1.78D+00 NAtFMM=   60 NAOKFM=F Big=F
 Integral buffers will be    131072 words long.
 Raffenetti 2 integral format.
 Two-electron integral symmetry is turned on.
 Standard density basis: W06 (5D, 7F)
   196 Density fitting functions
 There are   196 symmetry adapted density basis functions of A   symmetry.
 ------------------------------------------------------------------------------
 Polarizable Continuum Model (PCM)
 =================================
 Model                : C-PCM.
 Atomic radii         : UFF (Universal Force Field).
 Polarization charges : Total charges.
 Charge compensation  : None.
 Solution method      : On-the-fly selection.
 Cavity type          : Scaled VdW (van der Waals Surface) (Alpha=1.100).
 Cavity algorithm     : GePol (No added spheres)
                        Default sphere list used, NSphG=    4.
                        Lebedev-Laikov grids with approx.  5.0 points / Ang**2.
                        Smoothing algorithm: York/Karplus (Gamma=1.0000).
                        Polarization charges: spherical gaussians, with
                                              point-specific exponents (IZeta= 3).
                        Self-potential: point-specific (ISelfS= 7).
                        Self-field    : sphere-specific E.n sum rule (ISelfD= 2).
 1st derivatives      : Analytical E(r).r(x)/FMM algorithm (CHGder, D1EAlg=3).
                        Cavity 1st derivative terms included.
 Solvent              : Generic,
                        Eps                           = 999.000000
                        Eps(infinity)                 =   0.000000
                        RSolv                         =   0.000000 Ang.
                        Molar volume                  =   0.000000 cm**3/mol
                        Thermal expansion coefficient =   0.000000 K**-1
                        Absolute temperature          = 298.150000 K
                        Numeral density               =   0.000000 Ang**-3
                        Hydrogen bond acidity         =   0.000000
                        Hydrogen bond basicity        =   0.000000
                        Surface tension at interface  =   0.000000 (cal/mol)*Ang**-2
                        Carbon aromaticity            =   0.000000
                        Electronegative halogenicity  =   0.000000
 ------------------------------------------------------------------------------
 Spheres list:
 ISph  on   Nord     Re0    Alpha      Xe            Ye            Ze
    1   N      1    1.8300  1.100      0.000000     -0.000000     -0.000086
    2   O      2    1.7500  1.100      0.000000      1.096842     -0.633092
    3   O      3    1.7500  1.100     -0.000000     -1.096842     -0.633092
    4   O      4    1.7500  1.100     -0.000000      0.000000      1.266260
 ------------------------------------------------------------------------------
 GePol: Number of generator spheres                  =       4
 GePol: Total number of spheres                      =       4
 GePol: Number of exposed spheres                    =       4 (100.00%)
 GePol: Number of points                             =     667
 GePol: Average weight of points                     =       0.14
 GePol: Minimum weight of points                     =   0.11D-05
 GePol: Maximum weight of points                     =    0.18313
 GePol: Number of points with low weight             =      20
 GePol: Fraction of low-weight points (<1% of avg)   =       3.00%
 GePol: Cavity surface area                          =     90.487 Ang**2
 GePol: Cavity volume                                =     72.335 Ang**3
 Leave Link  301 at Tue Mar 10 15:41:22 2020, MaxMem=  7516192768 cpu:               0.8 elap:               0.1
 (Enter /opt/g16/l302.exe)
 NPDir=0 NMtPBC=     1 NCelOv=     1 NCel=       1 NClECP=     1 NCelD=      1
         NCelK=      1 NCelE2=     1 NClLst=     1 CellRange=     0.0.
 One-electron integrals computed using PRISM.
 One-electron integral symmetry used in STVInt
   4 Symmetry operations used in ECPInt.
 ECPInt:  NShTT=     990 NPrTT=    3328 LenC2=     979 LenP2D=    2794.
 LDataN:  DoStor=T MaxTD1= 6 Len=  172
 NBasis=   124 RedAO= T EigKep=  1.51D-03  NBF=    49    16    24    35
 NBsUse=   124 1.00D-06 EigRej= -1.00D+00 NBFU=    49    16    24    35
 NBasis=      124 NBas6D=      144 NTT=        7750   NTT6D=    10440
 NDBShl=       60 NDBF=        196 NDBF6D=      244  NNucDB=        0
 IDenFi=        2 ISolve=        0 FullAP=F BlkAPC=T NucTyp=        0
 TolInv= 1.00D-06 TolIt=  1.00D-10 IR12=0.
 FoFCou: FMM=F IPFlag=           0 FMFlag=           0 FMFlg1=           0
         NFxFlg=           0 DoJE=F BraDBF=T KetDBF=T FulRan=T
         wScrn=  0.000000 ICntrl=       600 IOpCl=  3 I1Cent=           6 NGrid=           0
         NMat0=    1 NMatS0=    244 NMatT0=    0 NMatD0=    1 NMtDS0=    0 NMtDT0=    0
 Petite list used in FoFCou.
 DBF EigKep=  1.76D-05 EigRej= -1.00D+00
 NDBF=    196  NBFD=   196
 NRank=   196 NBFDU=   196
 S*AI*S=  5.58000466637    
 Precomputing XC quadrature grid using
 IXCGrd= 4 IRadAn=           5 IRanWt=          -1 IRanGd=           0 AccXCQ= 0.00D+00.
 Generated NRdTot=       0 NPtTot=           0 NUsed=           0 NTot=          32
 NSgBfM=   144   144   144   144   144 MxSgAt=     4 MxSgA2=     4.
 Leave Link  302 at Tue Mar 10 15:41:23 2020, MaxMem=  7516192768 cpu:               3.0 elap:               0.3
 (Enter /opt/g16/l303.exe)
 DipDrv:  MaxL=1.
 Leave Link  303 at Tue Mar 10 15:41:23 2020, MaxMem=  7516192768 cpu:               0.2 elap:               0.0
 (Enter /opt/g16/l401.exe)
 Initial guess from the checkpoint file:  "no3.chk"
 B after Tr=    -0.000000    0.000000    0.000000
         Rot=    1.000000   -0.000000   -0.000000    0.000000 Ang=   0.00 deg.
 Guess basis will be translated and rotated to current coordinates.
 Recovered     1 saved fitting vectors from chk file.
 JPrj=2 DoOrth=T DoCkMO=T.
 Initial guess orbital symmetries:
       Occupied  (A1) (B2) (A1) (A1) (A1) (B2) (A1) (A1) (B1) (B2)
                 (A1) (B2) (A1) (A2) (B1) (B2)
       Virtual   (B1) (A1) (A1) (B2) (A1) (B1) (A1) (B2) (A1) (B1)
                 (A2) (A1) (B2) (A1) (B2) (B2) (B1) (A1) (A1) (B2)
                 (B1) (A2) (A1) (B2) (A1) (A2) (B1) (A2) (B2) (A1)
                 (A1) (B1) (B2) (A1) (A1) (B2) (B1) (A2) (B1) (A1)
                 (A1) (B2) (B2) (A1) (B2) (B1) (A2) (B1) (A1) (A1)
                 (B2) (A1) (B2) (A1) (B2) (A2) (B1) (A1) (B1) (B2)
                 (A1) (A1) (B2) (A2) (B1) (A1) (B2) (A2) (A1) (B2)
                 (B1) (A2) (B1) (A1) (B2) (B1) (B2) (A2) (A1) (A1)
                 (A1) (B2) (B1) (A2) (B1) (A2) (A1) (A2) (B1) (B2)
                 (A1) (B2) (B1) (A2) (B1) (B2) (A1) (A1) (B2) (A1)
                 (A1) (B2) (B2) (A1) (A1) (A1) (A1) (B2)
 The electronic state of the initial guess is 1-A1.
 Leave Link  401 at Tue Mar 10 15:41:23 2020, MaxMem=  7516192768 cpu:               0.9 elap:               0.1
 (Enter /opt/g16/l502.exe)
 Density fitting will be used, IDenFit= 2 NucTyp=  0.
 Integral symmetry usage will be decided dynamically.
 Closed shell SCF:
 Using DIIS extrapolation, IDIIS=  1040.
 NGot=  7516192768 LenX=  7516146974 LenY=  7516125797
 Requested convergence on RMS density matrix=1.00D-08 within 128 cycles.
 Requested convergence on MAX density matrix=1.00D-06.
 Requested convergence on             energy=1.00D-06.
 No special actions if energy rises.
 Fock matrices will be formed incrementally for  20 cycles.

 Cycle   1  Pass 1  IDiag  1:
 FoFCou: FMM=F IPFlag=           0 FMFlag=      100000 FMFlg1=           0
         NFxFlg=           0 DoJE=T BraDBF=T KetDBF=F FulRan=T
         wScrn=  0.000000 ICntrl=       500 IOpCl=  0 I1Cent=           5 NGrid=           0
         NMat0=    1 NMatS0=      1 NMatT0=    0 NMatD0=    1 NMtDS0=    0 NMtDT0=    0
 Petite list used in FoFCou.
 FoFJK:  IHMeth= 1 ICntrl=     500 DoSepK=F KAlg= 0 I1Cent=           4 FoldK=F
 IRaf= 980000000 NMat=       1 IRICut=       1 DoRegI=T DoRafI=F ISym2E= 1 IDoP0=0 IntGTp=1.
 Inv3:  Mode=1 IEnd=     1334667.
 Iteration    1 A*A^-1 deviation from unit magnitude is 2.89D-15 for    124.
 Iteration    1 A*A^-1 deviation from orthogonality  is 1.58D-15 for    605    291.
 Iteration    1 A^-1*A deviation from unit magnitude is 3.33D-15 for    124.
 Iteration    1 A^-1*A deviation from orthogonality  is 3.15D-15 for    648    124.
 E= -280.324265024001    
 DIIS: error= 6.45D-04 at cycle   1 NSaved=   1.
 NSaved= 1 IEnMin= 1 EnMin= -280.324265024001     IErMin= 1 ErrMin= 6.45D-04
 ErrMax= 6.45D-04  0.00D+00 EMaxC= 1.00D-01 BMatC= 4.95D-05 BMatP= 4.95D-05
 IDIUse=3 WtCom= 9.94D-01 WtEn= 6.45D-03
 Coeff-Com:  0.100D+01
 Coeff-En:   0.100D+01
 Coeff:      0.100D+01
 Gap=     0.132 Goal=   None    Shift=    0.000
 RMSDP=7.18D-05 MaxDP=1.65D-03              OVMax= 2.33D-03

 Cycle   2  Pass 1  IDiag  1:
 RMSU=  7.18D-05    CP:  1.00D+00
 E= -280.324297105907     Delta-E=       -0.000032081906 Rises=F Damp=F
 DIIS: error= 2.37D-04 at cycle   2 NSaved=   2.
 NSaved= 2 IEnMin= 2 EnMin= -280.324297105907     IErMin= 2 ErrMin= 2.37D-04
 ErrMax= 2.37D-04  0.00D+00 EMaxC= 1.00D-01 BMatC= 4.40D-06 BMatP= 4.95D-05
 IDIUse=3 WtCom= 9.98D-01 WtEn= 2.37D-03
 Coeff-Com:  0.157D+00 0.843D+00
 Coeff-En:   0.000D+00 0.100D+01
 Coeff:      0.157D+00 0.843D+00
 Gap=     0.131 Goal=   None    Shift=    0.000
 RMSDP=1.93D-05 MaxDP=5.58D-04 DE=-3.21D-05 OVMax= 1.27D-03

 Cycle   3  Pass 1  IDiag  1:
 RMSU=  1.88D-05    CP:  1.00D+00  1.05D+00
 E= -280.324295343081     Delta-E=        0.000001762826 Rises=F Damp=F
 DIIS: error= 3.45D-04 at cycle   3 NSaved=   3.
 NSaved= 3 IEnMin= 2 EnMin= -280.324297105907     IErMin= 2 ErrMin= 2.37D-04
 ErrMax= 3.45D-04  0.00D+00 EMaxC= 1.00D-01 BMatC= 6.51D-06 BMatP= 4.40D-06
 IDIUse=3 WtCom= 3.50D-01 WtEn= 6.50D-01
 Coeff-Com:  0.239D-01 0.552D+00 0.425D+00
 Coeff-En:   0.000D+00 0.592D+00 0.408D+00
 Coeff:      0.835D-02 0.578D+00 0.414D+00
 Gap=     0.131 Goal=   None    Shift=    0.000
 RMSDP=1.03D-05 MaxDP=3.56D-04 DE= 1.76D-06 OVMax= 8.91D-04

 Cycle   4  Pass 1  IDiag  1:
 RMSU=  5.03D-06    CP:  1.00D+00  1.03D+00  5.30D-01
 E= -280.324299914755     Delta-E=       -0.000004571675 Rises=F Damp=F
 DIIS: error= 7.75D-05 at cycle   4 NSaved=   4.
 NSaved= 4 IEnMin= 4 EnMin= -280.324299914755     IErMin= 4 ErrMin= 7.75D-05
 ErrMax= 7.75D-05  0.00D+00 EMaxC= 1.00D-01 BMatC= 5.29D-07 BMatP= 4.40D-06
 IDIUse=1 WtCom= 1.00D+00 WtEn= 0.00D+00
 Coeff-Com:  0.570D-02 0.318D+00 0.271D+00 0.406D+00
 Coeff:      0.570D-02 0.318D+00 0.271D+00 0.406D+00
 Gap=     0.131 Goal=   None    Shift=    0.000
 RMSDP=3.38D-06 MaxDP=6.37D-05 DE=-4.57D-06 OVMax= 1.33D-04

 Cycle   5  Pass 1  IDiag  1:
 RMSU=  9.47D-07    CP:  1.00D+00  1.02D+00  4.57D-01  4.41D-01
 E= -280.324300244716     Delta-E=       -0.000000329960 Rises=F Damp=F
 DIIS: error= 7.95D-06 at cycle   5 NSaved=   5.
 NSaved= 5 IEnMin= 5 EnMin= -280.324300244716     IErMin= 5 ErrMin= 7.95D-06
 ErrMax= 7.95D-06  0.00D+00 EMaxC= 1.00D-01 BMatC= 4.08D-09 BMatP= 5.29D-07
 IDIUse=1 WtCom= 1.00D+00 WtEn= 0.00D+00
 Coeff-Com:  0.175D-03 0.334D-01 0.431D-01 0.980D-01 0.825D+00
 Coeff:      0.175D-03 0.334D-01 0.431D-01 0.980D-01 0.825D+00
 Gap=     0.131 Goal=   None    Shift=    0.000
 RMSDP=5.66D-07 MaxDP=1.47D-05 DE=-3.30D-07 OVMax= 4.48D-05

 Cycle   6  Pass 1  IDiag  1:
 RMSU=  3.94D-07    CP:  1.00D+00  1.02D+00  4.72D-01  4.56D-01  7.29D-01
 E= -280.324300244728     Delta-E=       -0.000000000013 Rises=F Damp=F
 DIIS: error= 8.02D-06 at cycle   6 NSaved=   6.
 NSaved= 6 IEnMin= 6 EnMin= -280.324300244728     IErMin= 5 ErrMin= 7.95D-06
 ErrMax= 8.02D-06  0.00D+00 EMaxC= 1.00D-01 BMatC= 4.28D-09 BMatP= 4.08D-09
 IDIUse=1 WtCom= 1.00D+00 WtEn= 0.00D+00
 Coeff-Com: -0.541D-05 0.185D-01 0.271D-01 0.666D-01 0.638D+00 0.250D+00
 Coeff:     -0.541D-05 0.185D-01 0.271D-01 0.666D-01 0.638D+00 0.250D+00
 Gap=     0.131 Goal=   None    Shift=    0.000
 RMSDP=3.20D-07 MaxDP=8.68D-06 DE=-1.27D-11 OVMax= 3.22D-05

 Cycle   7  Pass 1  IDiag  1:
 RMSU=  6.43D-08    CP:  1.00D+00  1.02D+00  4.73D-01  4.54D-01  7.90D-01
                    CP:  2.21D-01
 E= -280.324300247959     Delta-E=       -0.000000003230 Rises=F Damp=F
 DIIS: error= 4.67D-07 at cycle   7 NSaved=   7.
 NSaved= 7 IEnMin= 7 EnMin= -280.324300247959     IErMin= 7 ErrMin= 4.67D-07
 ErrMax= 4.67D-07  0.00D+00 EMaxC= 1.00D-01 BMatC= 2.23D-11 BMatP= 4.08D-09
 IDIUse=1 WtCom= 1.00D+00 WtEn= 0.00D+00
 Coeff-Com: -0.216D-04 0.482D-02 0.685D-02 0.183D-01 0.176D+00 0.102D+00
 Coeff-Com:  0.693D+00
 Coeff:     -0.216D-04 0.482D-02 0.685D-02 0.183D-01 0.176D+00 0.102D+00
 Coeff:      0.693D+00
 Gap=     0.131 Goal=   None    Shift=    0.000
 RMSDP=2.40D-08 MaxDP=4.85D-07 DE=-3.23D-09 OVMax= 1.73D-06

 Cycle   8  Pass 1  IDiag  1:
 RMSU=  9.18D-09    CP:  1.00D+00  1.02D+00  4.73D-01  4.56D-01  7.93D-01
                    CP:  2.57D-01  7.96D-01
 E= -280.324300247974     Delta-E=       -0.000000000016 Rises=F Damp=F
 DIIS: error= 4.43D-08 at cycle   8 NSaved=   8.
 NSaved= 8 IEnMin= 8 EnMin= -280.324300247974     IErMin= 8 ErrMin= 4.43D-08
 ErrMax= 4.43D-08  0.00D+00 EMaxC= 1.00D-01 BMatC= 1.40D-13 BMatP= 2.23D-11
 IDIUse=1 WtCom= 1.00D+00 WtEn= 0.00D+00
 Coeff-Com: -0.898D-06 0.126D-03 0.802D-04 0.725D-03 0.661D-02 0.631D-02
 Coeff-Com:  0.819D-01 0.904D+00
 Coeff:     -0.898D-06 0.126D-03 0.802D-04 0.725D-03 0.661D-02 0.631D-02
 Coeff:      0.819D-01 0.904D+00
 Gap=     0.131 Goal=   None    Shift=    0.000
 RMSDP=1.74D-09 MaxDP=5.87D-08 DE=-1.58D-11 OVMax= 1.35D-07

 Error on total polarization charges =  0.00829
 SCF Done:  E(RPBE-PBE) =  -280.324300248     A.U. after    8 cycles
            NFock=  8  Conv=0.17D-08     -V/T= 2.0034
 KE= 2.793859085071D+02 PE=-9.036472781679D+02 EE= 2.274145393028D+02
 Leave Link  502 at Tue Mar 10 15:41:29 2020, MaxMem=  7516192768 cpu:              79.4 elap:               6.7
 (Enter /opt/g16/l701.exe)
 ... and contract with generalized density number  0.
 Compute integral first derivatives.
   4 Symmetry operations used in ECPInt.
 ECPInt:  NShTT=     990 NPrTT=    3328 LenC2=     979 LenP2D=    2794.
 LDataN:  DoStor=T MaxTD1= 7 Len=  274
 D1PCM: C-PCM CHGder 1st derivatives, ID1Alg=3 FixD1E=F DoIter=F DoCFld=F I1PDM=0.
 GePol: Maximum number of non-zero 1st derivatives   =     235
 Leave Link  701 at Tue Mar 10 15:41:30 2020, MaxMem=  7516192768 cpu:               5.2 elap:               0.5
 (Enter /opt/g16/l702.exe)
 L702 exits ... SP integral derivatives will be done elsewhere.
 Leave Link  702 at Tue Mar 10 15:41:30 2020, MaxMem=  7516192768 cpu:               0.2 elap:               0.0
 (Enter /opt/g16/l703.exe)
 Integral derivatives from FoFJK, PRISM(SPDF).
 Compute integral first derivatives, UseDBF=T ICtDFT=           0.
 Calling FoFJK, ICntrl=      2527 FMM=F ISym2X=1 I1Cent= 4 IOpClX= 0 NMat=1 NMatS=1 NMatT=0.
 FoFJK:  IHMeth= 1 ICntrl=    2527 DoSepK=F KAlg= 0 I1Cent=           4 FoldK=F
 IRaf=         0 NMat=       1 IRICut=       1 DoRegI=T DoRafI=F ISym2E= 1 IDoP0=0 IntGTp=1.
 FoFCou: FMM=F IPFlag=           0 FMFlag=      100000 FMFlg1=         800
         NFxFlg=           0 DoJE=F BraDBF=F KetDBF=T FulRan=T
         wScrn=  0.000000 ICntrl=      2527 IOpCl=  0 I1Cent=           4 NGrid=           0
         NMat0=    1 NMatS0=      1 NMatT0=    0 NMatD0=    1 NMtDS0=    0 NMtDT0=    0
 Petite list used in FoFCou.
 Leave Link  703 at Tue Mar 10 15:41:30 2020, MaxMem=  7516192768 cpu:               3.9 elap:               0.3
 (Enter /opt/g16/l716.exe)
 Dipole        = 3.48603651D-16 9.12705042D-18-4.50933999D-04
 ***** Axes restored to original set *****
 -------------------------------------------------------------------
 Center     Atomic                   Forces (Hartrees/Bohr)
 Number     Number              X              Y              Z
 -------------------------------------------------------------------
      1        7          -0.000008704    0.000000000    0.000000000
      2        8           0.000010380    0.000001576   -0.000001715
      3        8           0.000010380   -0.000001576    0.000001715
      4        8          -0.000012055   -0.000000000    0.000000000
 -------------------------------------------------------------------
 Cartesian Forces:  Max     0.000012055 RMS     0.000006106
 Leave Link  716 at Tue Mar 10 15:41:30 2020, MaxMem=  7516192768 cpu:               0.2 elap:               0.0
 (Enter /opt/g16/l103.exe)

 GradGradGradGradGradGradGradGradGradGradGradGradGradGradGradGradGradGrad
 Berny optimization.
 Using GEDIIS/GDIIS optimizer.
 FormGI is forming the generalized inverse of G from B-inverse, IUseBI=4.
 Internal  Forces:  Max     0.000016200 RMS     0.000008937
 Search for a local minimum.
 Step number   3 out of a maximum of   20
 All quantities printed in internal units (Hartrees-Bohrs-Radians)
 RMS Force = .89371D-05 SwitMx=.10000D-02 MixMth= 2
 Mixed Optimization -- En-DIIS/RFO-DIIS
 Update second derivatives using D2CorX and points    1    2    3
 DE= -6.71D-05 DEPred=-6.12D-05 R= 1.10D+00
 TightC=F SS=  1.41D+00  RLast= 1.43D-02 DXNew= 5.0454D-01 4.3004D-02
 Trust test= 1.10D+00 RLast= 1.43D-02 DXMaxT set to 3.00D-01
 The second derivative matrix:
                          R1        R2        R3        A1        A2
           R1           0.79389
           R2          -0.06805   0.79389
           R3          -0.06771  -0.06771   0.79456
           A1          -0.00070  -0.00070  -0.00071   0.25001
           A2           0.00035   0.00035   0.00035  -0.00000   0.25000
           A3           0.00035   0.00035   0.00035  -0.00000   0.00000
           D1          -0.00000  -0.00000  -0.00000   0.00000  -0.00000
                          A3        D1
           A3           0.25000
           D1          -0.00000   0.03382
 ITU=  1  1  0
 Use linear search instead of GDIIS.
     Eigenvalues ---    0.03382   0.25000   0.25001   0.65847   0.86194
     Eigenvalues ---    0.86194
 RFO step:  Lambda= 0.00000000D+00 EMin= 3.38246100D-02
 Quartic linear search produced a step of -0.00116.
 Iteration  1 RMS(Cart)=  0.00003483 RMS(Int)=  0.00000000
 Iteration  2 RMS(Cart)=  0.00000000 RMS(Int)=  0.00000000
 ITry= 1 IFail=0 DXMaxC= 4.72D-05 DCOld= 1.00D+10 DXMaxT= 3.00D-01 DXLimC= 3.00D+00 Rises=F
 ClnCor:  largest displacement from symmetrization is 4.51D-12 for atom     1.
 Variable       Old X    -DE/DX   Delta X   Delta X   Delta X     New X
                                 (Linear)    (Quad)   (Total)
    R1        2.39314  -0.00000  -0.00001   0.00000  -0.00001   2.39314
    R2        2.39314  -0.00000  -0.00001   0.00000  -0.00001   2.39314
    R3        2.39305  -0.00001  -0.00001  -0.00001  -0.00002   2.39303
    A1        2.09475   0.00002   0.00000   0.00006   0.00006   2.09481
    A2        2.09422  -0.00001  -0.00000  -0.00003  -0.00003   2.09419
    A3        2.09422  -0.00001  -0.00000  -0.00003  -0.00003   2.09419
    D1        3.14159   0.00000   0.00000   0.00000   0.00000   3.14159
         Item               Value     Threshold  Converged?
 Maximum Force            0.000016     0.000450     YES
 RMS     Force            0.000009     0.000300     YES
 Maximum Displacement     0.000047     0.001800     YES
 RMS     Displacement     0.000035     0.001200     YES
 Predicted change in Energy=-9.015003D-10
 Optimization completed.
    -- Stationary point found.
                           ----------------------------
                           !   Optimized Parameters   !
                           ! (Angstroms and Degrees)  !
 --------------------------                            --------------------------
 ! Name  Definition              Value          Derivative Info.                !
 --------------------------------------------------------------------------------
 ! R1    R(1,2)                  1.2664         -DE/DX =    0.0                 !
 ! R2    R(1,3)                  1.2664         -DE/DX =    0.0                 !
 ! R3    R(1,4)                  1.2663         -DE/DX =    0.0                 !
 ! A1    A(2,1,3)              120.0201         -DE/DX =    0.0                 !
 ! A2    A(2,1,4)              119.99           -DE/DX =    0.0                 !
 ! A3    A(3,1,4)              119.99           -DE/DX =    0.0                 !
 ! D1    D(2,1,4,3)            180.0            -DE/DX =    0.0                 !
 --------------------------------------------------------------------------------
 Lowest energy point so far.  Saving SCF results.
 Largest change from initial coordinates is atom    3       0.024 Angstoms.
 GradGradGradGradGradGradGradGradGradGradGradGradGradGradGradGradGradGrad

 Leave Link  103 at Tue Mar 10 15:41:30 2020, MaxMem=  7516192768 cpu:               0.1 elap:               0.0
 (Enter /opt/g16/l202.exe)
                          Input orientation:                          
 ---------------------------------------------------------------------
 Center     Atomic      Atomic             Coordinates (Angstroms)
 Number     Number       Type             X           Y           Z
 ---------------------------------------------------------------------
      1          7           0        1.054907    0.046950   -0.040530
      2          8           0        0.421901    0.789348   -0.847938
      3          8           0        0.421901   -0.695448    0.766878
      4          8           0        2.321252    0.046950   -0.040530
 ---------------------------------------------------------------------
                    Distance matrix (angstroms):
                    1          2          3          4
     1  N    0.000000
     2  O    1.266396   0.000000
     3  O    1.266396   2.193684   0.000000
     4  O    1.266346   2.193308   2.193308   0.000000
 Stoichiometry    NO3(1-)
 Framework group  C2V[C2(NO),SGV(O2)]
 Deg. of freedom     3
 Full point group                 C2V     NOp   4
 RotChk:  IX=0 Diff= 9.18D-16
 Largest Abelian subgroup         C2V     NOp   4
 Largest concise Abelian subgroup C2      NOp   2
                         Standard orientation:                         
 ---------------------------------------------------------------------
 Center     Atomic      Atomic             Coordinates (Angstroms)
 Number     Number       Type             X           Y           Z
 ---------------------------------------------------------------------
      1          7           0       -0.000000   -0.000000   -0.000086
      2          8           0        0.000000    1.096842   -0.633092
      3          8           0       -0.000000   -1.096842   -0.633092
      4          8           0        0.000000    0.000000    1.266260
 ---------------------------------------------------------------------
 Rotational constants (GHZ):          13.1375903          13.1315815           6.5672926
 Leave Link  202 at Tue Mar 10 15:41:30 2020, MaxMem=  7516192768 cpu:               0.1 elap:               0.0
 (Enter /opt/g16/l601.exe)
 Copying SCF densities to generalized density rwf, IOpCl= 0 IROHF=0.

 **********************************************************************

            Population analysis using the SCF Density.

 **********************************************************************

 Orbital symmetries:
       Occupied  (A1) (B2) (A1) (A1) (A1) (B2) (A1) (A1) (B1) (B2)
                 (A1) (B2) (A1) (A2) (B1) (B2)
       Virtual   (B1) (A1) (A1) (B2) (A1) (B1) (A1) (B2) (A1) (B1)
                 (A2) (A1) (B2) (A1) (B2) (B2) (B1) (A1) (A1) (B2)
                 (B1) (A2) (A1) (B2) (A1) (A2) (B1) (A2) (B2) (A1)
                 (A1) (B1) (B2) (A1) (A1) (B2) (B1) (A2) (B1) (A1)
                 (A1) (B2) (B2) (A1) (B2) (B1) (A2) (B1) (A1) (A1)
                 (B2) (A1) (B2) (A1) (B2) (A2) (B1) (A1) (B1) (B2)
                 (A1) (A1) (B2) (A2) (B1) (A1) (B2) (A2) (A1) (B2)
                 (B1) (A2) (B1) (A1) (B2) (B1) (A2) (B2) (A1) (A1)
                 (A1) (B2) (B1) (A2) (B1) (A2) (A2) (B1) (A1) (B2)
                 (A1) (B2) (B1) (A2) (B1) (B2) (A1) (A1) (B2) (A1)
                 (A1) (B2) (B2) (A1) (A1) (A1) (A1) (B2)
 The electronic state is 1-A1.
 Alpha  occ. eigenvalues --  -18.72464 -18.72464 -18.72463 -14.19318  -1.10346
 Alpha  occ. eigenvalues --   -0.90012  -0.90008  -0.51227  -0.45240  -0.42882
 Alpha  occ. eigenvalues --   -0.42881  -0.24374  -0.24369  -0.23268  -0.23267
 Alpha  occ. eigenvalues --   -0.17262
 Alpha virt. eigenvalues --   -0.04145   0.11609   0.24197   0.24200   0.24470
 Alpha virt. eigenvalues --    0.32262   0.34536   0.34538   0.41602   0.45868
 Alpha virt. eigenvalues --    0.45868   0.45878   0.45882   0.52634   0.52634
 Alpha virt. eigenvalues --    0.54453   0.54935   0.60491   0.90961   0.90967
 Alpha virt. eigenvalues --    0.97229   0.97231   1.22091   1.26774   1.26790
 Alpha virt. eigenvalues --    1.47789   1.47802   1.49590   1.59831   1.59847
 Alpha virt. eigenvalues --    1.65326   1.70425   1.79473   1.93009   1.98348
 Alpha virt. eigenvalues --    1.98354   2.07190   2.07200   2.07908   2.11058
 Alpha virt. eigenvalues --    2.19952   2.19955   2.53574   2.53588   2.55316
 Alpha virt. eigenvalues --    2.62980   2.62995   2.66700   2.72796   2.92658
 Alpha virt. eigenvalues --    2.92665   3.05035   3.05051   3.54706   3.54732
 Alpha virt. eigenvalues --    3.80145   3.80156   3.87798   4.06927   4.08077
 Alpha virt. eigenvalues --    4.48240   4.50440   4.50459   4.52809   4.52811
 Alpha virt. eigenvalues --    4.93683   4.93693   5.00692   5.05029   5.05173
 Alpha virt. eigenvalues --    5.05197   5.05198   5.05394   5.08832   5.08837
 Alpha virt. eigenvalues --    5.35223   5.35243   5.35631   5.35642   5.51402
 Alpha virt. eigenvalues --    5.80984   5.81017   6.07274   6.12532   6.12553
 Alpha virt. eigenvalues --    6.15435   6.25643   6.25657   6.26268   6.27602
 Alpha virt. eigenvalues --    6.27613   6.46955   6.71478   6.71918   6.71920
 Alpha virt. eigenvalues --    6.73768   6.73775   6.99755   6.99769   7.04000
 Alpha virt. eigenvalues --    7.17491   7.30234   7.38292   7.38314  31.60050
 Alpha virt. eigenvalues --   43.44442  43.47645  43.47669
          Condensed to atoms (all electrons):
               1          2          3          4
     1  N    5.273637   0.457967   0.457967   0.457894
     2  O    0.457967   8.319927  -0.163471  -0.163642
     3  O    0.457967  -0.163471   8.319927  -0.163642
     4  O    0.457894  -0.163642  -0.163642   8.320361
 Mulliken charges:
               1
     1  N    0.352534
     2  O   -0.450781
     3  O   -0.450781
     4  O   -0.450972
 Sum of Mulliken charges =  -1.00000
 Mulliken charges with hydrogens summed into heavy atoms:
               1
     1  N    0.352534
     2  O   -0.450781
     3  O   -0.450781
     4  O   -0.450972
 Electronic spatial extent (au):  <R**2>=            198.4619
 Charge=             -1.0000 electrons
 Dipole moment (field-independent basis, Debye):
    X=              0.0000    Y=             -0.0000    Z=             -0.0011  Tot=              0.0011
 Quadrupole moment (field-independent basis, Debye-Ang):
   XX=            -22.2908   YY=            -29.8880   ZZ=            -29.8878
   XY=             -0.0000   XZ=             -0.0000   YZ=              0.0000
 Traceless Quadrupole moment (field-independent basis, Debye-Ang):
   XX=              5.0648   YY=             -2.5325   ZZ=             -2.5323
   XY=             -0.0000   XZ=             -0.0000   YZ=              0.0000
 Octapole moment (field-independent basis, Debye-Ang**2):
  XXX=              0.0000  YYY=             -0.0000  ZZZ=             -2.9556  XYY=              0.0000
  XXY=              0.0000  XXZ=             -0.0003  XZZ=              0.0000  YZZ=             -0.0000
  YYZ=              2.9546  XYZ=              0.0000
 Hexadecapole moment (field-independent basis, Debye-Ang**3):
 XXXX=            -18.2206 YYYY=           -115.7110 ZZZZ=           -115.6776 XXXY=             -0.0000
 XXXZ=             -0.0000 YYYX=             -0.0000 YYYZ=              0.0000 ZZZX=             -0.0000
 ZZZY=             -0.0000 XXYY=            -21.2509 XXZZ=            -21.2453 YYZZ=            -38.5661
 XXYZ=             -0.0000 YYXZ=             -0.0000 ZZXY=             -0.0000
 N-N= 1.165225301099D+02 E-N=-9.036472759328D+02  KE= 2.793859085071D+02
 Symmetry A1   KE= 1.870453955112D+02
 Symmetry A2   KE= 4.821033733880D+00
 Symmetry B1   KE= 8.435272057957D+00
 Symmetry B2   KE= 7.908420720405D+01
 No NMR shielding tensors so no spin-rotation constants.
 Leave Link  601 at Tue Mar 10 15:41:31 2020, MaxMem=  7516192768 cpu:               1.8 elap:               0.2
 (Enter /opt/g16/l9999.exe)

 Test job not archived.
 1\1\GINC-OBELIX\FOpt\RPBEPBE\def2TZVP/W06\N1O3(1-)\MTMJEA001\10-Mar-20
 20\0\\#p pbepbe/def2tzvp/w06 opt scrf(cpcm,solvent=generic,read)\\no3\
 \-1,1\N,1.0549066639,0.04695,-0.04053\O,0.4219005176,0.7893483542,-0.8
 47937788\O,0.4219005176,-0.6954483542,0.766877788\O,2.3212523009,0.046
 95,-0.04053\\Version=ES64L-G16RevC.01\State=1-A1\HF=-280.3243002\RMSD=
 1.740e-09\RMSF=6.106e-06\Dipole=-0.0004509,0.,0.\Quadrupole=-1.8826853
 ,1.1778576,0.7048277,0.,0.,2.814264\PG=C02V [C2(N1O1),SGV(O2)]\\@


 BLESSED ARE THOSE WHO NOUGHT EXPECT,
 FOR THEY SHALL NOT BE DISAPPOINTED..  WALCOT - ODE TO PITT
 Job cpu time:       0 days  0 hours  5 minutes  8.9 seconds.
 Elapsed time:       0 days  0 hours  0 minutes 26.7 seconds.
 File lengths (MBytes):  RWF=     20 Int=      0 D2E=      0 Chk=      3 Scr=      1
 Normal termination of Gaussian 16 at Tue Mar 10 15:41:31 2020.
