 Entering Gaussian System, Link 0=g16
 Input=c1c2im_no3.gjf
 Output=c1c2im_no3.log
 Initial command:
 /opt/g16/l1.exe "/scratch/mtmjea001/heat_capicities/c1c2im_no3/Gau-3702.inp" -scrdir="/scratch/mtmjea001/heat_capicities/c1c2im_no3/"
 Entering Link 1 = /opt/g16/l1.exe PID=      3703.
  
 Copyright (c) 1988-2019, Gaussian, Inc.  All Rights Reserved.
  
 This is part of the Gaussian(R) 16 program.  It is based on
 the Gaussian(R) 09 system (copyright 2009, Gaussian, Inc.),
 the Gaussian(R) 03 system (copyright 2003, Gaussian, Inc.),
 the Gaussian(R) 98 system (copyright 1998, Gaussian, Inc.),
 the Gaussian(R) 94 system (copyright 1995, Gaussian, Inc.),
 the Gaussian 92(TM) system (copyright 1992, Gaussian, Inc.),
 the Gaussian 90(TM) system (copyright 1990, Gaussian, Inc.),
 the Gaussian 88(TM) system (copyright 1988, Gaussian, Inc.),
 the Gaussian 86(TM) system (copyright 1986, Carnegie Mellon
 University), and the Gaussian 82(TM) system (copyright 1983,
 Carnegie Mellon University). Gaussian is a federally registered
 trademark of Gaussian, Inc.
  
 This software contains proprietary and confidential information,
 including trade secrets, belonging to Gaussian, Inc.
  
 This software is provided under written license and may be
 used, copied, transmitted, or stored only in accord with that
 written license.
  
 The following legend is applicable only to US Government
 contracts under FAR:
  
                    RESTRICTED RIGHTS LEGEND
  
 Use, reproduction and disclosure by the US Government is
 subject to restrictions as set forth in subparagraphs (a)
 and (c) of the Commercial Computer Software - Restricted
 Rights clause in FAR 52.227-19.
  
 Gaussian, Inc.
 340 Quinnipiac St., Bldg. 40, Wallingford CT 06492
  
  
 ---------------------------------------------------------------
 Warning -- This program may not be used in any manner that
 competes with the business of Gaussian, Inc. or will provide
 assistance to any competitor of Gaussian, Inc.  The licensee
 of this program is prohibited from giving any competitor of
 Gaussian, Inc. access to this program.  By using this program,
 the user acknowledges that Gaussian, Inc. is engaged in the
 business of creating and licensing software in the field of
 computational chemistry and represents and warrants to the
 licensee that it is not a competitor of Gaussian, Inc. and that
 it will not use this program in any manner prohibited above.
 ---------------------------------------------------------------
  

 Cite this work as:
 Gaussian 16, Revision C.01,
 M. J. Frisch, G. W. Trucks, H. B. Schlegel, G. E. Scuseria, 
 M. A. Robb, J. R. Cheeseman, G. Scalmani, V. Barone, 
 G. A. Petersson, H. Nakatsuji, X. Li, M. Caricato, A. V. Marenich, 
 J. Bloino, B. G. Janesko, R. Gomperts, B. Mennucci, H. P. Hratchian, 
 J. V. Ortiz, A. F. Izmaylov, J. L. Sonnenberg, D. Williams-Young, 
 F. Ding, F. Lipparini, F. Egidi, J. Goings, B. Peng, A. Petrone, 
 T. Henderson, D. Ranasinghe, V. G. Zakrzewski, J. Gao, N. Rega, 
 G. Zheng, W. Liang, M. Hada, M. Ehara, K. Toyota, R. Fukuda, 
 J. Hasegawa, M. Ishida, T. Nakajima, Y. Honda, O. Kitao, H. Nakai, 
 T. Vreven, K. Throssell, J. A. Montgomery, Jr., J. E. Peralta, 
 F. Ogliaro, M. J. Bearpark, J. J. Heyd, E. N. Brothers, K. N. Kudin, 
 V. N. Staroverov, T. A. Keith, R. Kobayashi, J. Normand, 
 K. Raghavachari, A. P. Rendell, J. C. Burant, S. S. Iyengar, 
 J. Tomasi, M. Cossi, J. M. Millam, M. Klene, C. Adamo, R. Cammi, 
 J. W. Ochterski, R. L. Martin, K. Morokuma, O. Farkas, 
 J. B. Foresman, and D. J. Fox, Gaussian, Inc., Wallingford CT, 2019.
 
 ******************************************
 Gaussian 16:  ES64L-G16RevC.01  3-Jul-2019
                 6-Mar-2020 
 ******************************************
 %chk=c1c2im_no3.jgf
 %mem=56Gb
 %nprocs=12
 Will use up to   12 processors via shared memory.
 Default route: test
 ------------------------------------------------------------------
 #wb97xd/def2svp/w06 opt(tight) freq temperature=298.2 scale=0.9788
 ------------------------------------------------------------------
 1/7=10,18=20,19=15,26=3,38=1,112=298200,114=978800/1,3;
 2/9=110,12=2,17=6,18=5,40=1/2;
 3/5=43,7=101,11=2,25=1,30=1,71=1,74=-58,82=40/1,2,3;
 4//1;
 5/5=2,38=5/2;
 6/7=2,8=2,9=2,10=2,28=1/1;
 7//1,2,3,16;
 1/7=10,18=20,19=15,26=3/3(2);
 2/9=110/2;
 99//99;
 2/9=110/2;
 3/5=43,7=101,11=2,25=1,30=1,71=1,74=-58,82=40/1,2,3;
 4/5=5,16=3,69=1/1;
 5/5=2,38=5/2;
 7//1,2,3,16;
 1/7=10,18=20,19=15,26=3/3(-5);
 2/9=110/2;
 6/7=2,8=2,9=2,10=2,19=2,28=1/1;
 99/9=1/99;
 --------------
 c1c2im_no3.jgf
 --------------
 Symbolic Z-matrix:
 Charge =  0 Multiplicity = 1
 C                     2.69834   0.59952   0.24892 
 C                     2.3625   -0.88457   0.35313 
 N                     0.9617   -1.10102   0.00548 
 C                     0.47087  -1.22455  -1.27115 
 C                    -0.88178  -1.23187  -1.1733 
 N                    -1.18778  -1.11209   0.15622 
 C                    -0.05977  -0.9807    0.85262 
 C                    -2.50934  -0.85727   0.70592 
 N                    -0.57543   1.68535  -0.07748 
 O                    -0.31474   1.34495   1.0955 
 O                    -1.71726   1.54148  -0.49867 
 O                     0.31828   2.0943   -0.79889 
 H                     2.05345   1.17701   0.90992 
 H                     2.53718   0.95217  -0.76796 
 H                     3.74006   0.75353   0.52715 
 H                     2.51426  -1.25119   1.37249 
 H                     2.97344  -1.4796   -0.33177 
 H                     1.11923  -1.29348  -2.12641 
 H                    -1.64582  -1.28596  -1.92798 
 H                     0.01465  -0.89055   1.92108 
 H                    -2.43939   0.02872   1.33795 
 H                    -2.84772  -1.718     1.28486 
 H                    -3.19172  -0.65766  -0.11619 
 
 Add virtual bond connecting atoms O10        and C7         Dist= 4.44D+00.
 Add virtual bond connecting atoms O10        and H13        Dist= 4.50D+00.
 Add virtual bond connecting atoms O10        and H20        Dist= 4.55D+00.
 Add virtual bond connecting atoms O11        and H21        Dist= 4.70D+00.
 Add virtual bond connecting atoms O12        and H14        Dist= 4.72D+00.

 GradGradGradGradGradGradGradGradGradGradGradGradGradGradGradGradGradGrad
 Berny optimization.
 Initialization pass.
                           ----------------------------
                           !    Initial Parameters    !
                           ! (Angstroms and Degrees)  !
 --------------------------                            --------------------------
 ! Name  Definition              Value          Derivative Info.                !
 --------------------------------------------------------------------------------
 ! R1    R(1,2)                  1.5252         estimate D2E/DX2                !
 ! R2    R(1,13)                 1.0892         estimate D2E/DX2                !
 ! R3    R(1,14)                 1.0883         estimate D2E/DX2                !
 ! R4    R(1,15)                 1.0892         estimate D2E/DX2                !
 ! R5    R(2,3)                  1.4594         estimate D2E/DX2                !
 ! R6    R(2,16)                 1.0939         estimate D2E/DX2                !
 ! R7    R(2,17)                 1.0938         estimate D2E/DX2                !
 ! R8    R(3,4)                  1.3733         estimate D2E/DX2                !
 ! R9    R(3,7)                  1.3325         estimate D2E/DX2                !
 ! R10   R(4,5)                  1.3562         estimate D2E/DX2                !
 ! R11   R(4,18)                 1.0754         estimate D2E/DX2                !
 ! R12   R(5,6)                  1.3695         estimate D2E/DX2                !
 ! R13   R(5,19)                 1.0753         estimate D2E/DX2                !
 ! R14   R(6,7)                  1.3322         estimate D2E/DX2                !
 ! R15   R(6,8)                  1.4538         estimate D2E/DX2                !
 ! R16   R(7,10)                 2.3522         estimate D2E/DX2                !
 ! R17   R(7,20)                 1.0748         estimate D2E/DX2                !
 ! R18   R(8,21)                 1.0906         estimate D2E/DX2                !
 ! R19   R(8,22)                 1.0911         estimate D2E/DX2                !
 ! R20   R(8,23)                 1.0869         estimate D2E/DX2                !
 ! R21   R(9,10)                 1.2489         estimate D2E/DX2                !
 ! R22   R(9,11)                 1.2255         estimate D2E/DX2                !
 ! R23   R(9,12)                 1.2192         estimate D2E/DX2                !
 ! R24   R(10,13)                2.3814         estimate D2E/DX2                !
 ! R25   R(10,20)                2.4057         estimate D2E/DX2                !
 ! R26   R(11,21)                2.4866         estimate D2E/DX2                !
 ! R27   R(12,14)                2.4958         estimate D2E/DX2                !
 ! A1    A(2,1,13)             110.1258         estimate D2E/DX2                !
 ! A2    A(2,1,14)             110.2761         estimate D2E/DX2                !
 ! A3    A(2,1,15)             109.3136         estimate D2E/DX2                !
 ! A4    A(13,1,14)            107.9129         estimate D2E/DX2                !
 ! A5    A(13,1,15)            109.6512         estimate D2E/DX2                !
 ! A6    A(14,1,15)            109.5422         estimate D2E/DX2                !
 ! A7    A(1,2,3)              109.8397         estimate D2E/DX2                !
 ! A8    A(1,2,16)             111.0544         estimate D2E/DX2                !
 ! A9    A(1,2,17)             111.3198         estimate D2E/DX2                !
 ! A10   A(3,2,16)             107.7846         estimate D2E/DX2                !
 ! A11   A(3,2,17)             107.8345         estimate D2E/DX2                !
 ! A12   A(16,2,17)            108.8867         estimate D2E/DX2                !
 ! A13   A(2,3,4)              125.2981         estimate D2E/DX2                !
 ! A14   A(2,3,7)              124.8168         estimate D2E/DX2                !
 ! A15   A(4,3,7)              108.9742         estimate D2E/DX2                !
 ! A16   A(3,4,5)              106.8512         estimate D2E/DX2                !
 ! A17   A(3,4,18)             121.9764         estimate D2E/DX2                !
 ! A18   A(5,4,18)             131.1723         estimate D2E/DX2                !
 ! A19   A(4,5,6)              107.0028         estimate D2E/DX2                !
 ! A20   A(4,5,19)             131.172          estimate D2E/DX2                !
 ! A21   A(6,5,19)             121.8017         estimate D2E/DX2                !
 ! A22   A(5,6,7)              109.082          estimate D2E/DX2                !
 ! A23   A(5,6,8)              125.838          estimate D2E/DX2                !
 ! A24   A(7,6,8)              123.6949         estimate D2E/DX2                !
 ! A25   A(3,7,6)              107.9301         estimate D2E/DX2                !
 ! A26   A(3,7,10)             103.7699         estimate D2E/DX2                !
 ! A27   A(3,7,20)             125.9078         estimate D2E/DX2                !
 ! A28   A(6,7,10)              93.4232         estimate D2E/DX2                !
 ! A29   A(6,7,20)             125.9133         estimate D2E/DX2                !
 ! A30   A(6,8,21)             107.651          estimate D2E/DX2                !
 ! A31   A(6,8,22)             110.1368         estimate D2E/DX2                !
 ! A32   A(6,8,23)             108.4756         estimate D2E/DX2                !
 ! A33   A(21,8,22)            110.6871         estimate D2E/DX2                !
 ! A34   A(21,8,23)            109.2338         estimate D2E/DX2                !
 ! A35   A(22,8,23)            110.5793         estimate D2E/DX2                !
 ! A36   A(10,9,11)            119.0311         estimate D2E/DX2                !
 ! A37   A(10,9,12)            119.6149         estimate D2E/DX2                !
 ! A38   A(11,9,12)            121.2654         estimate D2E/DX2                !
 ! A39   A(7,10,9)             101.2527         estimate D2E/DX2                !
 ! A40   A(7,10,13)             79.3055         estimate D2E/DX2                !
 ! A41   A(9,10,13)             98.8362         estimate D2E/DX2                !
 ! A42   A(9,10,20)            127.1692         estimate D2E/DX2                !
 ! A43   A(13,10,20)            79.9243         estimate D2E/DX2                !
 ! A44   A(9,11,21)             95.0572         estimate D2E/DX2                !
 ! A45   A(9,12,14)            119.3988         estimate D2E/DX2                !
 ! A46   A(1,13,10)            132.3376         estimate D2E/DX2                !
 ! A47   A(1,14,12)            106.9493         estimate D2E/DX2                !
 ! A48   A(8,21,11)             94.8655         estimate D2E/DX2                !
 ! D1    D(13,1,2,3)            58.4692         estimate D2E/DX2                !
 ! D2    D(13,1,2,16)          -60.6636         estimate D2E/DX2                !
 ! D3    D(13,1,2,17)          177.8313         estimate D2E/DX2                !
 ! D4    D(14,1,2,3)           -60.5168         estimate D2E/DX2                !
 ! D5    D(14,1,2,16)         -179.6495         estimate D2E/DX2                !
 ! D6    D(14,1,2,17)           58.8453         estimate D2E/DX2                !
 ! D7    D(15,1,2,3)           178.9966         estimate D2E/DX2                !
 ! D8    D(15,1,2,16)           59.8638         estimate D2E/DX2                !
 ! D9    D(15,1,2,17)          -61.6413         estimate D2E/DX2                !
 ! D10   D(2,1,13,10)          -56.0688         estimate D2E/DX2                !
 ! D11   D(14,1,13,10)          64.3514         estimate D2E/DX2                !
 ! D12   D(15,1,13,10)        -176.3929         estimate D2E/DX2                !
 ! D13   D(2,1,14,12)           99.5811         estimate D2E/DX2                !
 ! D14   D(13,1,14,12)         -20.7447         estimate D2E/DX2                !
 ! D15   D(15,1,14,12)        -140.0696         estimate D2E/DX2                !
 ! D16   D(1,2,3,4)             83.0122         estimate D2E/DX2                !
 ! D17   D(1,2,3,7)            -84.844          estimate D2E/DX2                !
 ! D18   D(16,2,3,4)          -155.8682         estimate D2E/DX2                !
 ! D19   D(16,2,3,7)            36.2756         estimate D2E/DX2                !
 ! D20   D(17,2,3,4)           -38.4614         estimate D2E/DX2                !
 ! D21   D(17,2,3,7)           153.6823         estimate D2E/DX2                !
 ! D22   D(2,3,4,5)           -171.9506         estimate D2E/DX2                !
 ! D23   D(2,3,4,18)             7.9227         estimate D2E/DX2                !
 ! D24   D(7,3,4,5)             -2.4735         estimate D2E/DX2                !
 ! D25   D(7,3,4,18)           177.3997         estimate D2E/DX2                !
 ! D26   D(2,3,7,6)            173.5185         estimate D2E/DX2                !
 ! D27   D(2,3,7,10)            75.2442         estimate D2E/DX2                !
 ! D28   D(2,3,7,20)           -11.9527         estimate D2E/DX2                !
 ! D29   D(4,3,7,6)              3.9789         estimate D2E/DX2                !
 ! D30   D(4,3,7,10)           -94.2954         estimate D2E/DX2                !
 ! D31   D(4,3,7,20)           178.5077         estimate D2E/DX2                !
 ! D32   D(3,4,5,6)              0.0436         estimate D2E/DX2                !
 ! D33   D(3,4,5,19)           178.2618         estimate D2E/DX2                !
 ! D34   D(18,4,5,6)          -179.8136         estimate D2E/DX2                !
 ! D35   D(18,4,5,19)           -1.5953         estimate D2E/DX2                !
 ! D36   D(4,5,6,7)              2.4032         estimate D2E/DX2                !
 ! D37   D(4,5,6,8)            169.2995         estimate D2E/DX2                !
 ! D38   D(19,5,6,7)          -176.0187         estimate D2E/DX2                !
 ! D39   D(19,5,6,8)            -9.1225         estimate D2E/DX2                !
 ! D40   D(5,6,7,3)             -3.9558         estimate D2E/DX2                !
 ! D41   D(5,6,7,10)           101.7071         estimate D2E/DX2                !
 ! D42   D(5,6,7,20)          -178.4842         estimate D2E/DX2                !
 ! D43   D(8,6,7,3)           -171.1937         estimate D2E/DX2                !
 ! D44   D(8,6,7,10)           -65.5308         estimate D2E/DX2                !
 ! D45   D(8,6,7,20)            14.2779         estimate D2E/DX2                !
 ! D46   D(5,6,8,21)          -124.8833         estimate D2E/DX2                !
 ! D47   D(5,6,8,22)           114.351          estimate D2E/DX2                !
 ! D48   D(5,6,8,23)            -6.7969         estimate D2E/DX2                !
 ! D49   D(7,6,8,21)            40.1938         estimate D2E/DX2                !
 ! D50   D(7,6,8,22)           -80.572          estimate D2E/DX2                !
 ! D51   D(7,6,8,23)           158.2802         estimate D2E/DX2                !
 ! D52   D(3,7,10,9)            61.1983         estimate D2E/DX2                !
 ! D53   D(3,7,10,13)          -35.7986         estimate D2E/DX2                !
 ! D54   D(6,7,10,9)           -48.2035         estimate D2E/DX2                !
 ! D55   D(6,7,10,13)         -145.2005         estimate D2E/DX2                !
 ! D56   D(6,8,21,11)           60.86           estimate D2E/DX2                !
 ! D57   D(22,8,21,11)        -178.7206         estimate D2E/DX2                !
 ! D58   D(23,8,21,11)         -56.7361         estimate D2E/DX2                !
 ! D59   D(11,9,10,7)           80.2476         estimate D2E/DX2                !
 ! D60   D(11,9,10,13)         161.0086         estimate D2E/DX2                !
 ! D61   D(11,9,10,20)          76.9967         estimate D2E/DX2                !
 ! D62   D(12,9,10,7)          -96.3741         estimate D2E/DX2                !
 ! D63   D(12,9,10,13)         -15.613          estimate D2E/DX2                !
 ! D64   D(12,9,10,20)         -99.625          estimate D2E/DX2                !
 ! D65   D(10,9,11,21)         -14.8922         estimate D2E/DX2                !
 ! D66   D(12,9,11,21)         161.6717         estimate D2E/DX2                !
 ! D67   D(10,9,12,14)          41.8116         estimate D2E/DX2                !
 ! D68   D(11,9,12,14)        -134.7326         estimate D2E/DX2                !
 ! D69   D(7,10,13,1)           43.589          estimate D2E/DX2                !
 ! D70   D(9,10,13,1)          -56.2926         estimate D2E/DX2                !
 ! D71   D(20,10,13,1)          70.1048         estimate D2E/DX2                !
 ! D72   D(9,11,21,8)         -110.4539         estimate D2E/DX2                !
 ! D73   D(9,12,14,1)          -33.3512         estimate D2E/DX2                !
 --------------------------------------------------------------------------------
 Trust Radius=3.00D-01 FncErr=1.00D-07 GrdErr=1.00D-06 EigMax=2.50D+02 EigMin=1.00D-04
 Number of steps in this run=    138 maximum allowed number of steps=    138.
 GradGradGradGradGradGradGradGradGradGradGradGradGradGradGradGradGradGrad

                          Input orientation:                          
 ---------------------------------------------------------------------
 Center     Atomic      Atomic             Coordinates (Angstroms)
 Number     Number       Type             X           Y           Z
 ---------------------------------------------------------------------
      1          6           0        2.698340    0.599520    0.248920
      2          6           0        2.362500   -0.884570    0.353130
      3          7           0        0.961700   -1.101020    0.005480
      4          6           0        0.470870   -1.224550   -1.271150
      5          6           0       -0.881780   -1.231870   -1.173300
      6          7           0       -1.187780   -1.112090    0.156220
      7          6           0       -0.059770   -0.980700    0.852620
      8          6           0       -2.509340   -0.857270    0.705920
      9          7           0       -0.575430    1.685350   -0.077480
     10          8           0       -0.314740    1.344950    1.095500
     11          8           0       -1.717260    1.541480   -0.498670
     12          8           0        0.318280    2.094300   -0.798890
     13          1           0        2.053450    1.177010    0.909920
     14          1           0        2.537180    0.952170   -0.767960
     15          1           0        3.740060    0.753530    0.527150
     16          1           0        2.514260   -1.251190    1.372490
     17          1           0        2.973440   -1.479600   -0.331770
     18          1           0        1.119230   -1.293480   -2.126410
     19          1           0       -1.645820   -1.285960   -1.927980
     20          1           0        0.014650   -0.890550    1.921080
     21          1           0       -2.439390    0.028720    1.337950
     22          1           0       -2.847720   -1.718000    1.284860
     23          1           0       -3.191720   -0.657660   -0.116190
 ---------------------------------------------------------------------
                    Distance matrix (angstroms):
                    1          2          3          4          5
     1  C    0.000000
     2  C    1.525179   0.000000
     3  N    2.442748   1.459435   0.000000
     4  C    3.255682   2.516374   1.373302   0.000000
     5  C    4.265438   3.602216   2.192045   1.356204   0.000000
     6  N    4.247368   3.563008   2.154788   2.191153   1.369528
     7  C    3.235540   2.475101   1.332488   2.202599   2.200713
     8  C    5.426879   4.884673   3.549387   3.595185   2.514109
     9  N    3.464554   3.927002   3.183317   3.314681   3.131269
    10  O    3.217299   3.562231   2.966515   3.580579   3.479797
    11  O    4.576429   4.822419   3.796551   3.610479   2.973991
    12  O    2.999493   3.792051   3.357241   3.355753   3.555803
    13  H    1.089173   2.157693   2.683161   3.609587   4.331060
    14  H    1.088292   2.158928   2.701099   3.043180   4.077207
    15  H    1.089179   2.147400   3.380944   4.223066   5.309873
    16  H    2.172883   1.093863   2.074056   3.341405   4.244350
    17  H    2.176148   1.093799   2.074647   2.685208   3.953766
    18  H    3.423336   2.803756   2.146348   1.075450   2.217263
    19  H    5.212068   4.629385   3.251404   2.217109   1.075279
    20  H    3.495514   2.823279   2.147260   3.241917   3.239641
    21  H    5.282809   4.986193   3.823507   4.104595   3.212727
    22  H    6.099414   5.358089   4.065607   4.217786   3.184932
    23  H    6.033789   5.578630   4.178788   3.881992   2.604423
                    6          7          8          9         10
     6  N    0.000000
     7  C    1.332157   0.000000
     8  C    1.453831   2.457061   0.000000
     9  N    2.873197   2.870333   3.289170   0.000000
    10  O    2.771550   2.352158   3.133339   1.248885   0.000000
    11  O    2.784001   3.306758   2.798648   1.225510   2.132385
    12  O    3.668977   3.510845   4.355646   1.219176   2.133296
    13  H    4.039012   3.020711   4.999896   2.853836   2.381379
    14  H    4.357821   3.620278   5.560014   3.271491   3.429316
    15  H    5.282209   4.189534   6.456132   4.456155   4.136932
    16  H    3.899200   2.639898   5.082917   4.502429   3.849663
    17  H    4.205823   3.294244   5.614710   4.761938   4.563695
    18  H    3.250476   3.219082   4.623731   3.992921   4.404349
    19  H    2.141009   3.215661   2.804794   3.660433   4.223138
    20  H    2.147009   1.074836   2.801472   3.313261   2.405731
    21  H    2.065057   2.630031   1.090566   2.867440   2.511052
    22  H    2.096749   2.916009   1.091114   4.313011   3.979134
    23  H    2.072797   3.294246   1.086900   3.512288   3.708861
                   11         12         13         14         15
    11  O    0.000000
    12  O    2.130532   0.000000
    13  H    4.041685   2.602358   0.000000
    14  H    4.303494   2.495783   1.760633   0.000000
    15  H    5.608522   3.906997   1.780590   1.778676   0.000000
    16  H    5.404258   4.552969   2.514453   3.071945   2.497216
    17  H    5.581886   4.476699   3.073394   2.508802   2.512433
    18  H    4.328072   3.725706   4.024349   2.983105   4.254454
    19  H    3.168982   4.069237   5.272997   4.883888   6.260582
    20  H    3.843107   4.049661   3.074728   4.121858   4.304035
    21  H    2.486582   4.054312   4.656972   5.482141   6.274420
    22  H    3.883700   5.375798   5.704659   6.351459   7.076823
    23  H    2.675171   4.512146   5.650728   5.986372   7.103163
                   16         17         18         19         20
    16  H    0.000000
    17  H    1.779753   0.000000
    18  H    3.766988   2.587174   0.000000
    19  H    5.310422   4.891109   2.772171   0.000000
    20  H    2.584388   3.765203   4.214810   4.210555   0.000000
    21  H    5.116445   5.861887   5.139434   3.608938   2.684662
    22  H    5.382975   6.046175   5.249159   3.457393   3.046738
    23  H    5.926774   6.223444   4.798910   2.463159   3.805984
                   21         22         23
    21  H    0.000000
    22  H    1.794598   0.000000
    23  H    1.775286   1.790418   0.000000
 Stoichiometry    C6H11N3O3
 Framework group  C1[X(C6H11N3O3)]
 Deg. of freedom    63
 Full point group                 C1      NOp   1
 Largest Abelian subgroup         C1      NOp   1
 Largest concise Abelian subgroup C1      NOp   1
                         Standard orientation:                         
 ---------------------------------------------------------------------
 Center     Atomic      Atomic             Coordinates (Angstroms)
 Number     Number       Type             X           Y           Z
 ---------------------------------------------------------------------
      1          6           0       -2.697498    0.667601   -0.252751
      2          6           0       -2.418223   -0.828722   -0.348634
      3          7           0       -1.025666   -1.095825   -0.003103
      4          6           0       -0.536418   -1.230061    1.273054
      5          6           0        0.814723   -1.289071    1.171924
      6          7           0        1.121449   -1.189007   -0.159058
      7          6           0       -0.002664   -1.019324   -0.853478
      8          6           0        2.450206   -0.987637   -0.713567
      9          7           0        0.615808    1.630937    0.058895
     10          8           0        0.339294    1.293516   -1.111319
     11          8           0        1.752520    1.446591    0.478154
     12          8           0       -0.259877    2.077728    0.779966
     13          1           0       -2.033041    1.216294   -0.918883
     14          1           0       -2.520400    1.020075    0.761536
     15          1           0       -3.733404    0.859165   -0.529362
     16          1           0       -2.586462   -1.195526   -1.365338
     17          1           0       -3.049353   -1.396080    0.341422
     18          1           0       -1.184615   -1.269256    2.130314
     19          1           0        1.578203   -1.367406    1.925042
     20          1           0       -0.076501   -0.932912   -1.922287
     21          1           0        2.412063   -0.103488   -1.350874
     22          1           0        2.754281   -1.864033   -1.288020
     23          1           0        3.141846   -0.808964    0.105615
 ---------------------------------------------------------------------
 Rotational constants (GHZ):           1.2664612           1.0003627           0.7296073
 Standard basis: def2SVP (5D, 7F)
 There are   235 symmetry adapted cartesian basis functions of A   symmetry.
 There are   223 symmetry adapted basis functions of A   symmetry.
   223 basis functions,   377 primitive gaussians,   235 cartesian basis functions
    46 alpha electrons       46 beta electrons
       nuclear repulsion energy       801.7199775681 Hartrees.
 NAtoms=   23 NActive=   23 NUniq=   23 SFac= 1.00D+00 NAtFMM=   60 NAOKFM=F Big=F
 Integral buffers will be    131072 words long.
 Raffenetti 2 integral format.
 Two-electron integral symmetry is turned on.
 Nuclear repulsion after empirical dispersion term =      801.7025818028 Hartrees.
 Standard density basis: W06 (5D, 7F)
   709 Density fitting functions
 There are   709 symmetry adapted density basis functions of A   symmetry.
 One-electron integrals computed using PRISM.
   1 Symmetry operations used in ECPInt.
 ECPInt:  NShTT=    5565 NPrTT=   20089 LenC2=    5495 LenP2D=   15326.
 LDataN:  DoStor=T MaxTD1= 4 Len=   56
 NBasis=   223 RedAO= T EigKep=  1.31D-03  NBF=   223
 NBsUse=   223 1.00D-06 EigRej= -1.00D+00 NBFU=   223
 ExpMin= 1.22D-01 ExpMax= 2.27D+03 ExpMxC= 3.41D+02 IAcc=3 IRadAn=         5 AccDes= 0.00D+00
 Harris functional with IExCor= 4639 and IRadAn=       5 diagonalized for initial guess.
 HarFok:  IExCor= 4639 AccDes= 0.00D+00 IRadAn=         5 IDoV= 1 UseB2=F ITyADJ=14
 ICtDFT=  3500011 ScaDFX=  1.000000  1.000000  1.000000  1.000000
 FoFCou: FMM=F IPFlag=           0 FMFlag=      100000 FMFlg1=           0
         NFxFlg=           0 DoJE=T BraDBF=F KetDBF=T FulRan=T
         wScrn=  0.000000 ICntrl=       500 IOpCl=  0 I1Cent=   200000004 NGrid=           0
         NMat0=    1 NMatS0=      1 NMatT0=    0 NMatD0=    1 NMtDS0=    0 NMtDT0=    0
 Petite list used in FoFCou.
 Requested convergence on RMS density matrix=1.00D-08 within 128 cycles.
 Requested convergence on MAX density matrix=1.00D-06.
 Requested convergence on             energy=1.00D-06.
 No special actions if energy rises.
 Integral accuracy reduced to 1.0D-05 until final iterations.
 Initial convergence to 1.0D-05 achieved.  Increase integral accuracy.
 SCF Done:  E(RwB97XD) =  -624.385421631     A.U. after   16 cycles
            NFock= 16  Conv=0.45D-08     -V/T= 2.0084

 **********************************************************************

            Population analysis using the SCF Density.

 **********************************************************************

 Orbital symmetries:
       Occupied  (A) (A) (A) (A) (A) (A) (A) (A) (A) (A) (A) (A)
                 (A) (A) (A) (A) (A) (A) (A) (A) (A) (A) (A) (A)
                 (A) (A) (A) (A) (A) (A) (A) (A) (A) (A) (A) (A)
                 (A) (A) (A) (A) (A) (A) (A) (A) (A) (A)
       Virtual   (A) (A) (A) (A) (A) (A) (A) (A) (A) (A) (A) (A)
                 (A) (A) (A) (A) (A) (A) (A) (A) (A) (A) (A) (A)
                 (A) (A) (A) (A) (A) (A) (A) (A) (A) (A) (A) (A)
                 (A) (A) (A) (A) (A) (A) (A) (A) (A) (A) (A) (A)
                 (A) (A) (A) (A) (A) (A) (A) (A) (A) (A) (A) (A)
                 (A) (A) (A) (A) (A) (A) (A) (A) (A) (A) (A) (A)
                 (A) (A) (A) (A) (A) (A) (A) (A) (A) (A) (A) (A)
                 (A) (A) (A) (A) (A) (A) (A) (A) (A) (A) (A) (A)
                 (A) (A) (A) (A) (A) (A) (A) (A) (A) (A) (A) (A)
                 (A) (A) (A) (A) (A) (A) (A) (A) (A) (A) (A) (A)
                 (A) (A) (A) (A) (A) (A) (A) (A) (A) (A) (A) (A)
                 (A) (A) (A) (A) (A) (A) (A) (A) (A) (A) (A) (A)
                 (A) (A) (A) (A) (A) (A) (A) (A) (A) (A) (A) (A)
                 (A) (A) (A) (A) (A) (A) (A) (A) (A) (A) (A) (A)
                 (A) (A) (A) (A) (A) (A) (A) (A) (A)
 The electronic state is 1-A.
 Alpha  occ. eigenvalues --  -19.19879 -19.19509 -19.19311 -14.64115 -14.54965
 Alpha  occ. eigenvalues --  -14.54815 -10.42063 -10.36939 -10.36611 -10.36480
 Alpha  occ. eigenvalues --  -10.35160 -10.28658  -1.29497  -1.19185  -1.07313
 Alpha  occ. eigenvalues --   -1.06587  -1.06079  -0.92035  -0.88772  -0.83478
 Alpha  occ. eigenvalues --   -0.76694  -0.74307  -0.71971  -0.66343  -0.63318
 Alpha  occ. eigenvalues --   -0.61233  -0.58894  -0.58742  -0.57344  -0.57101
 Alpha  occ. eigenvalues --   -0.56398  -0.54984  -0.54187  -0.53884  -0.53068
 Alpha  occ. eigenvalues --   -0.50269  -0.48438  -0.46763  -0.44551  -0.40313
 Alpha  occ. eigenvalues --   -0.37822  -0.34940  -0.34111  -0.31944  -0.30944
 Alpha  occ. eigenvalues --   -0.27139
 Alpha virt. eigenvalues --    0.04587   0.07683   0.11589   0.12523   0.14068
 Alpha virt. eigenvalues --    0.14843   0.16214   0.17715   0.19643   0.19949
 Alpha virt. eigenvalues --    0.20645   0.21089   0.22151   0.23397   0.23978
 Alpha virt. eigenvalues --    0.26172   0.27928   0.29795   0.29987   0.32794
 Alpha virt. eigenvalues --    0.36316   0.38659   0.42344   0.43771   0.44590
 Alpha virt. eigenvalues --    0.48008   0.49300   0.50428   0.51406   0.52449
 Alpha virt. eigenvalues --    0.53577   0.54556   0.55270   0.56402   0.57288
 Alpha virt. eigenvalues --    0.60569   0.65192   0.65471   0.66044   0.68032
 Alpha virt. eigenvalues --    0.69135   0.70426   0.70879   0.72172   0.73350
 Alpha virt. eigenvalues --    0.73721   0.74619   0.75973   0.76324   0.77354
 Alpha virt. eigenvalues --    0.77926   0.78469   0.79178   0.80927   0.82668
 Alpha virt. eigenvalues --    0.84432   0.86633   0.89943   0.92629   0.93978
 Alpha virt. eigenvalues --    0.96480   0.98929   0.99885   1.01774   1.06767
 Alpha virt. eigenvalues --    1.09287   1.11123   1.11674   1.13845   1.16231
 Alpha virt. eigenvalues --    1.16790   1.19970   1.22263   1.24180   1.24383
 Alpha virt. eigenvalues --    1.25660   1.27499   1.30400   1.31959   1.33448
 Alpha virt. eigenvalues --    1.35790   1.37534   1.39154   1.41814   1.44421
 Alpha virt. eigenvalues --    1.45698   1.46274   1.49085   1.51847   1.57705
 Alpha virt. eigenvalues --    1.59506   1.60944   1.64465   1.65899   1.67307
 Alpha virt. eigenvalues --    1.70740   1.72126   1.80090   1.80620   1.81907
 Alpha virt. eigenvalues --    1.83151   1.84244   1.84415   1.87294   1.88581
 Alpha virt. eigenvalues --    1.89202   1.90886   1.91544   1.92802   1.93841
 Alpha virt. eigenvalues --    1.94763   1.95162   1.96315   1.98191   1.98637
 Alpha virt. eigenvalues --    1.99825   2.02399   2.05250   2.09928   2.11194
 Alpha virt. eigenvalues --    2.12415   2.13728   2.16573   2.19156   2.23197
 Alpha virt. eigenvalues --    2.28253   2.33396   2.36822   2.38715   2.42483
 Alpha virt. eigenvalues --    2.44284   2.45418   2.47805   2.49015   2.50175
 Alpha virt. eigenvalues --    2.51397   2.53454   2.55383   2.57459   2.60436
 Alpha virt. eigenvalues --    2.63110   2.65081   2.69774   2.76241   2.78088
 Alpha virt. eigenvalues --    2.78878   2.79217   2.80132   2.81011   2.81506
 Alpha virt. eigenvalues --    2.82394   2.83100   2.85484   2.89548   2.90304
 Alpha virt. eigenvalues --    2.91272   2.94936   2.96895   2.99398   3.01284
 Alpha virt. eigenvalues --    3.01585   3.04212   3.06290   3.06977   3.10373
 Alpha virt. eigenvalues --    3.13826   3.24037   3.40503   3.42839   3.44712
 Alpha virt. eigenvalues --    3.55595   3.56740   3.57370   3.59116   3.75783
 Alpha virt. eigenvalues --    3.95714   3.97792
          Condensed to atoms (all electrons):
               1          2          3          4          5          6
     1  C    4.600143   0.422874  -0.064546  -0.000896  -0.001556  -0.000042
     2  C    0.422874   4.610876   0.262120  -0.032907   0.006685   0.002789
     3  N   -0.064546   0.262120   6.460988   0.358983  -0.030608  -0.067133
     4  C   -0.000896  -0.032907   0.358983   4.921636   0.426386  -0.033257
     5  C   -0.001556   0.006685  -0.030608   0.426386   4.869610   0.373513
     6  N   -0.000042   0.002789  -0.067133  -0.033257   0.373513   6.396894
     7  C   -0.005561  -0.028268   0.420128  -0.108768  -0.117264   0.425236
     8  C   -0.000018  -0.000043   0.003672   0.003829  -0.027799   0.290205
     9  N   -0.000550  -0.000705   0.000631   0.002671  -0.003506  -0.001101
    10  O   -0.010992  -0.000608  -0.019824  -0.000077  -0.001082  -0.029409
    11  O   -0.000246   0.000019   0.000858  -0.011508   0.025814  -0.006466
    12  O    0.001301  -0.003117   0.000283   0.013861  -0.008327   0.000581
    13  H    0.374268  -0.011850  -0.004859  -0.001420   0.000246  -0.000251
    14  H    0.398708  -0.015659  -0.003567   0.005490  -0.001185   0.000114
    15  H    0.382398  -0.027789   0.005992   0.000111  -0.000001   0.000003
    16  H   -0.021229   0.388526  -0.019291   0.005827  -0.000589   0.000587
    17  H   -0.024444   0.391829  -0.021098  -0.008641   0.001670  -0.000328
    18  H   -0.000999  -0.000267  -0.032534   0.434265  -0.039017   0.003830
    19  H    0.000004  -0.000101   0.003740  -0.038478   0.433846  -0.029586
    20  H   -0.001000   0.000870  -0.021739   0.003264   0.003435  -0.019336
    21  H    0.000033  -0.000011   0.000532  -0.000093   0.001647  -0.021610
    22  H    0.000001   0.000014   0.000103  -0.000704   0.001997  -0.025031
    23  H   -0.000001   0.000011  -0.000178   0.001188  -0.006640  -0.014054
               7          8          9         10         11         12
     1  C   -0.005561  -0.000018  -0.000550  -0.010992  -0.000246   0.001301
     2  C   -0.028268  -0.000043  -0.000705  -0.000608   0.000019  -0.003117
     3  N    0.420128   0.003672   0.000631  -0.019824   0.000858   0.000283
     4  C   -0.108768   0.003829   0.002671  -0.000077  -0.011508   0.013861
     5  C   -0.117264  -0.027799  -0.003506  -0.001082   0.025814  -0.008327
     6  N    0.425236   0.290205  -0.001101  -0.029409  -0.006466   0.000581
     7  C    4.693427  -0.033392  -0.011601   0.078278  -0.007848  -0.002937
     8  C   -0.033392   4.494549  -0.003226  -0.009758   0.012822  -0.000140
     9  N   -0.011601  -0.003226   5.630404   0.298446   0.351311   0.371376
    10  O    0.078278  -0.009758   0.298446   8.297232  -0.130128  -0.128954
    11  O   -0.007848   0.012822   0.351311  -0.130128   8.252411  -0.125184
    12  O   -0.002937  -0.000140   0.371376  -0.128954  -0.125184   8.213505
    13  H    0.004508   0.000057  -0.001549   0.034335   0.000965   0.003440
    14  H   -0.001528  -0.000006  -0.000940  -0.000179   0.000037   0.009958
    15  H    0.000205  -0.000000   0.000081   0.000214   0.000003   0.000714
    16  H   -0.007632  -0.000005   0.000010  -0.000227  -0.000001  -0.000035
    17  H    0.005324   0.000009  -0.000013  -0.000017   0.000000  -0.000040
    18  H    0.005084  -0.000118  -0.000009  -0.000022  -0.000070   0.000323
    19  H    0.005394  -0.004125  -0.000141   0.000008   0.001266  -0.000099
    20  H    0.414701  -0.000156  -0.000473  -0.000313   0.000135   0.000070
    21  H   -0.002896   0.385574  -0.000728   0.027553   0.006588   0.000877
    22  H   -0.005709   0.391205   0.000115  -0.000086   0.001373   0.000006
    23  H    0.004918   0.405786  -0.000445   0.000234   0.001305  -0.000006
              13         14         15         16         17         18
     1  C    0.374268   0.398708   0.382398  -0.021229  -0.024444  -0.000999
     2  C   -0.011850  -0.015659  -0.027789   0.388526   0.391829  -0.000267
     3  N   -0.004859  -0.003567   0.005992  -0.019291  -0.021098  -0.032534
     4  C   -0.001420   0.005490   0.000111   0.005827  -0.008641   0.434265
     5  C    0.000246  -0.001185  -0.000001  -0.000589   0.001670  -0.039017
     6  N   -0.000251   0.000114   0.000003   0.000587  -0.000328   0.003830
     7  C    0.004508  -0.001528   0.000205  -0.007632   0.005324   0.005084
     8  C    0.000057  -0.000006  -0.000000  -0.000005   0.000009  -0.000118
     9  N   -0.001549  -0.000940   0.000081   0.000010  -0.000013  -0.000009
    10  O    0.034335  -0.000179   0.000214  -0.000227  -0.000017  -0.000022
    11  O    0.000965   0.000037   0.000003  -0.000001   0.000000  -0.000070
    12  O    0.003440   0.009958   0.000714  -0.000035  -0.000040   0.000323
    13  H    0.555366  -0.014225  -0.011657  -0.008023   0.005594  -0.000016
    14  H   -0.014225   0.573889  -0.017285   0.006269  -0.008257   0.001075
    15  H   -0.011657  -0.017285   0.638901  -0.004855  -0.003767  -0.000048
    16  H   -0.008023   0.006269  -0.004855   0.632437  -0.025925   0.000143
    17  H    0.005594  -0.008257  -0.003767  -0.025925   0.632320   0.001088
    18  H   -0.000016   0.001075  -0.000048   0.000143   0.001088   0.567364
    19  H   -0.000003   0.000004  -0.000000   0.000009   0.000002  -0.003136
    20  H    0.000824  -0.000016  -0.000026   0.000883   0.000080  -0.000171
    21  H   -0.000111  -0.000002  -0.000000   0.000008   0.000000   0.000007
    22  H   -0.000001  -0.000000  -0.000000  -0.000002  -0.000000   0.000008
    23  H   -0.000002   0.000000   0.000000   0.000000  -0.000000  -0.000011
              19         20         21         22         23
     1  C    0.000004  -0.001000   0.000033   0.000001  -0.000001
     2  C   -0.000101   0.000870  -0.000011   0.000014   0.000011
     3  N    0.003740  -0.021739   0.000532   0.000103  -0.000178
     4  C   -0.038478   0.003264  -0.000093  -0.000704   0.001188
     5  C    0.433846   0.003435   0.001647   0.001997  -0.006640
     6  N   -0.029586  -0.019336  -0.021610  -0.025031  -0.014054
     7  C    0.005394   0.414701  -0.002896  -0.005709   0.004918
     8  C   -0.004125  -0.000156   0.385574   0.391205   0.405786
     9  N   -0.000141  -0.000473  -0.000728   0.000115  -0.000445
    10  O    0.000008  -0.000313   0.027553  -0.000086   0.000234
    11  O    0.001266   0.000135   0.006588   0.001373   0.001305
    12  O   -0.000099   0.000070   0.000877   0.000006  -0.000006
    13  H   -0.000003   0.000824  -0.000111  -0.000001  -0.000002
    14  H    0.000004  -0.000016  -0.000002  -0.000000   0.000000
    15  H   -0.000000  -0.000026  -0.000000  -0.000000   0.000000
    16  H    0.000009   0.000883   0.000008  -0.000002   0.000000
    17  H    0.000002   0.000080   0.000000  -0.000000  -0.000000
    18  H   -0.003136  -0.000171   0.000007   0.000008  -0.000011
    19  H    0.560687  -0.000169  -0.000038   0.000166   0.002273
    20  H   -0.000169   0.529991  -0.000061   0.000417   0.000006
    21  H   -0.000038  -0.000061   0.538221  -0.018752  -0.008082
    22  H    0.000166   0.000417  -0.018752   0.621750  -0.021815
    23  H    0.002273   0.000006  -0.008082  -0.021815   0.560414
 Mulliken charges:
               1
     1  C   -0.047649
     2  C    0.034711
     3  N   -0.232651
     4  C    0.059241
     5  C    0.092726
     6  N   -0.246147
     7  C    0.276202
     8  C    0.091079
     9  N    0.369940
    10  O   -0.404624
    11  O   -0.373455
    12  O   -0.347456
    13  H    0.074365
    14  H    0.067306
    15  H    0.036806
    16  H    0.053115
    17  H    0.054612
    18  H    0.063232
    19  H    0.068476
    20  H    0.088785
    21  H    0.091345
    22  H    0.054946
    23  H    0.075097
 Sum of Mulliken charges =  -0.00000
 Mulliken charges with hydrogens summed into heavy atoms:
               1
     1  C    0.130829
     2  C    0.142438
     3  N   -0.232651
     4  C    0.122472
     5  C    0.161202
     6  N   -0.246147
     7  C    0.364987
     8  C    0.312467
     9  N    0.369940
    10  O   -0.404624
    11  O   -0.373455
    12  O   -0.347456
 Electronic spatial extent (au):  <R**2>=           1758.7503
 Charge=             -0.0000 electrons
 Dipole moment (field-independent basis, Debye):
    X=             -1.7950    Y=             -8.3455    Z=             -0.9170  Tot=              8.5854
 Quadrupole moment (field-independent basis, Debye-Ang):
   XX=            -60.6923   YY=            -77.8849   ZZ=            -65.7617
   XY=             -3.5416   XZ=             -1.0610   YZ=             -1.8793
 Traceless Quadrupole moment (field-independent basis, Debye-Ang):
   XX=              7.4207   YY=             -9.7720   ZZ=              2.3513
   XY=             -3.5416   XZ=             -1.0610   YZ=             -1.8793
 Octapole moment (field-independent basis, Debye-Ang**2):
  XXX=              0.3459  YYY=              4.7639  ZZZ=              2.5548  XYY=              2.2565
  XXY=            -16.0625  XXZ=             -3.4233  XZZ=              1.1960  YZZ=            -13.1303
  YYZ=             -7.2116  XYZ=             -0.8713
 Hexadecapole moment (field-independent basis, Debye-Ang**3):
 XXXX=          -1061.8345 YYYY=           -786.9585 ZZZZ=           -310.3439 XXXY=            -17.0077
 XXXZ=             -4.7381 YYYX=             10.2497 YYYZ=             -4.6054 ZZZX=             -0.2539
 ZZZY=              0.8205 XXYY=           -312.8508 XXZZ=           -227.8031 YYZZ=           -185.9463
 XXYZ=             -7.0073 YYXZ=             -3.7317 ZZXY=             -0.9944
 N-N= 8.017025818028D+02 E-N=-3.061761134322D+03  KE= 6.192133318238D+02
   1 Symmetry operations used in ECPInt.
 ECPInt:  NShTT=    5565 NPrTT=   20089 LenC2=    5495 LenP2D=   15326.
 LDataN:  DoStor=T MaxTD1= 5 Len=  102
 Calling FoFJK, ICntrl=      2127 FMM=F ISym2X=0 I1Cent= 0 IOpClX= 0 NMat=1 NMatS=1 NMatT=0.
 ***** Axes restored to original set *****
 -------------------------------------------------------------------
 Center     Atomic                   Forces (Hartrees/Bohr)
 Number     Number              X              Y              Z
 -------------------------------------------------------------------
      1        6           0.004681178   -0.009729696    0.003297251
      2        6          -0.002067598    0.012946773   -0.001278286
      3        7           0.005318680   -0.003576974    0.008524816
      4        6          -0.006222140   -0.002028646   -0.000265771
      5        6           0.006657076   -0.002568437   -0.000933493
      6        7          -0.006949531    0.001776158    0.007677089
      7        6          -0.000069164   -0.011292359   -0.015366145
      8        6           0.002737686   -0.004476314    0.003964324
      9        7           0.002741929   -0.001050393   -0.006455824
     10        8           0.002627649    0.003303806    0.024804359
     11        8          -0.020033893    0.002192826   -0.006323787
     12        8           0.012076949    0.010085033   -0.011803420
     13        1          -0.004147250    0.003774612    0.001125888
     14        1          -0.001173527    0.003696457   -0.004359132
     15        1           0.007533490    0.000798826    0.001296615
     16        1           0.000686915   -0.003259107    0.002362192
     17        1           0.001084906   -0.004267537   -0.000823869
     18        1           0.004105071    0.000334026   -0.005753726
     19        1          -0.004656796    0.000317611   -0.005109627
     20        1           0.000693488    0.002170052    0.006376882
     21        1          -0.000423459    0.004560138   -0.000393623
     22        1          -0.002069429   -0.005481523    0.001884740
     23        1          -0.003132230    0.001774670   -0.002447454
 -------------------------------------------------------------------
 Cartesian Forces:  Max     0.024804359 RMS     0.006513601

 GradGradGradGradGradGradGradGradGradGradGradGradGradGradGradGradGradGrad
 Berny optimization.
 FormGI is forming the generalized inverse of G from B-inverse, IUseBI=4.
 Internal  Forces:  Max     0.020552355 RMS     0.003863654
 Search for a local minimum.
 Step number   1 out of a maximum of  138
 All quantities printed in internal units (Hartrees-Bohrs-Radians)
 Mixed Optimization -- RFO/linear search
 Second derivative matrix not updated -- first step.
 ITU=  0
     Eigenvalues ---    0.00834   0.01272   0.01329   0.01757   0.02046
     Eigenvalues ---    0.02072   0.02295   0.02368   0.02440   0.02516
     Eigenvalues ---    0.02565   0.02823   0.03205   0.03710   0.03987
     Eigenvalues ---    0.04285   0.04462   0.05307   0.05673   0.05810
     Eigenvalues ---    0.06389   0.07596   0.08130   0.08337   0.08928
     Eigenvalues ---    0.09158   0.09390   0.10797   0.10933   0.11857
     Eigenvalues ---    0.13367   0.14120   0.14587   0.15845   0.15989
     Eigenvalues ---    0.16000   0.18403   0.18618   0.19321   0.22758
     Eigenvalues ---    0.23437   0.28223   0.31756   0.33227   0.33743
     Eigenvalues ---    0.34370   0.34377   0.34429   0.34684   0.34870
     Eigenvalues ---    0.34908   0.35173   0.36049   0.36550   0.36571
     Eigenvalues ---    0.43722   0.44346   0.51069   0.54249   0.54938
     Eigenvalues ---    0.75222   0.88459   0.89343
 RFO step:  Lambda=-7.31240679D-03 EMin= 8.34389811D-03
 Linear search not attempted -- first point.
 Iteration  1 RMS(Cart)=  0.03792016 RMS(Int)=  0.00045571
 Iteration  2 RMS(Cart)=  0.00056663 RMS(Int)=  0.00019008
 Iteration  3 RMS(Cart)=  0.00000025 RMS(Int)=  0.00019008
 Variable       Old X    -DE/DX   Delta X   Delta X   Delta X     New X
                                 (Linear)    (Quad)   (Total)
    R1        2.88217   0.00044   0.00000   0.00490   0.00480   2.88697
    R2        2.05824   0.00655   0.00000   0.01841   0.01838   2.07662
    R3        2.05657   0.00797   0.00000   0.02012   0.02014   2.07672
    R4        2.05825   0.00765   0.00000   0.02146   0.02146   2.07971
    R5        2.75793   0.00320   0.00000   0.01115   0.01117   2.76910
    R6        2.06710   0.00339   0.00000   0.00966   0.00966   2.07676
    R7        2.06698   0.00344   0.00000   0.00980   0.00980   2.07678
    R8        2.59516   0.00692   0.00000   0.01408   0.01403   2.60920
    R9        2.51804   0.00092   0.00000  -0.00024  -0.00013   2.51791
   R10        2.56285   0.00155   0.00000   0.00581   0.00568   2.56854
   R11        2.03231   0.00703   0.00000   0.01886   0.01886   2.05116
   R12        2.58803   0.00700   0.00000   0.01480   0.01477   2.60280
   R13        2.03198   0.00688   0.00000   0.01844   0.01844   2.05042
   R14        2.51741   0.00420   0.00000   0.00237   0.00246   2.51987
   R15        2.74734   0.00229   0.00000   0.00678   0.00656   2.75391
   R16        4.44493   0.00864   0.00000   0.14264   0.14337   4.58831
   R17        2.03115   0.00631   0.00000   0.01711   0.01739   2.04854
   R18        2.06087   0.00522   0.00000   0.01783   0.01765   2.07852
   R19        2.06191   0.00597   0.00000   0.01685   0.01685   2.07876
   R20        2.05394   0.00414   0.00000   0.01154   0.01154   2.06548
   R21        2.36005   0.02055   0.00000   0.02811   0.02800   2.38805
   R22        2.31588   0.02042   0.00000   0.02314   0.02321   2.33909
   R23        2.30391   0.01928   0.00000   0.02023   0.02030   2.32421
   R24        4.50015   0.00200   0.00000   0.04828   0.04818   4.54833
   R25        4.54617   0.00044   0.00000   0.02531   0.02470   4.57088
   R26        4.69896   0.00518   0.00000   0.12052   0.12060   4.81956
   R27        4.71635   0.00291   0.00000   0.08898   0.08901   4.80536
    A1        1.92206  -0.00239   0.00000  -0.00012  -0.00007   1.92199
    A2        1.92468   0.00198   0.00000   0.01511   0.01499   1.93967
    A3        1.90788   0.00046   0.00000   0.00141   0.00138   1.90927
    A4        1.88344  -0.00071   0.00000  -0.02278  -0.02270   1.86073
    A5        1.91377   0.00132   0.00000   0.00756   0.00749   1.92126
    A6        1.91187  -0.00066   0.00000  -0.00137  -0.00136   1.91051
    A7        1.91706   0.00399   0.00000   0.04199   0.04185   1.95891
    A8        1.93827  -0.00040   0.00000   0.00092   0.00096   1.93922
    A9        1.94290   0.00137   0.00000   0.01073   0.01078   1.95368
   A10        1.88120  -0.00143   0.00000  -0.01417  -0.01448   1.86672
   A11        1.88207  -0.00279   0.00000  -0.01880  -0.01941   1.86266
   A12        1.90043  -0.00092   0.00000  -0.02245  -0.02269   1.87774
   A13        2.18686   0.00114   0.00000   0.01071   0.01053   2.19739
   A14        2.17846   0.00032   0.00000   0.00303   0.00313   2.18160
   A15        1.90196  -0.00149   0.00000  -0.01421  -0.01413   1.88782
   A16        1.86490   0.00059   0.00000   0.00375   0.00368   1.86858
   A17        2.12889  -0.00014   0.00000  -0.00098  -0.00102   2.12787
   A18        2.28939  -0.00045   0.00000  -0.00282  -0.00286   2.28653
   A19        1.86755   0.00052   0.00000   0.00493   0.00486   1.87241
   A20        2.28938  -0.00061   0.00000  -0.00474  -0.00479   2.28460
   A21        2.12584   0.00006   0.00000  -0.00075  -0.00081   2.12503
   A22        1.90384  -0.00242   0.00000  -0.01598  -0.01591   1.88793
   A23        2.19629   0.00144   0.00000   0.01529   0.01509   2.21138
   A24        2.15888   0.00106   0.00000   0.00331   0.00336   2.16224
   A25        1.88374   0.00284   0.00000   0.02297   0.02276   1.90650
   A26        1.81113   0.00044   0.00000  -0.00032  -0.00064   1.81049
   A27        2.19751  -0.00179   0.00000  -0.00905  -0.00958   2.18793
   A28        1.63054   0.00333   0.00000   0.01751   0.01713   1.64767
   A29        2.19760  -0.00094   0.00000  -0.00978  -0.01005   2.18756
   A30        1.87886  -0.00168   0.00000   0.00948   0.00921   1.88807
   A31        1.92225  -0.00095   0.00000  -0.00410  -0.00398   1.91827
   A32        1.89326   0.00210   0.00000   0.00352   0.00349   1.89675
   A33        1.93185   0.00327   0.00000   0.00897   0.00903   1.94088
   A34        1.90649  -0.00237   0.00000  -0.01277  -0.01270   1.89379
   A35        1.92997  -0.00043   0.00000  -0.00491  -0.00491   1.92506
   A36        2.07748  -0.00371   0.00000  -0.00619  -0.00653   2.07096
   A37        2.08767  -0.00119   0.00000  -0.00110  -0.00122   2.08645
   A38        2.11648   0.00494   0.00000   0.00867   0.00883   2.12531
   A39        1.76719  -0.00087   0.00000   0.00377   0.00405   1.77125
   A40        1.38414   0.00054   0.00000  -0.00402  -0.00420   1.37994
   A41        1.72502   0.00007   0.00000   0.00240   0.00239   1.72740
   A42        2.21952   0.00024   0.00000   0.00058   0.00022   2.21975
   A43        1.39494   0.00003   0.00000  -0.00639  -0.00630   1.38865
   A44        1.65906  -0.00052   0.00000   0.00101   0.00090   1.65996
   A45        2.08390  -0.00383   0.00000  -0.01787  -0.01770   2.06620
   A46        2.30973   0.00110   0.00000   0.00566   0.00555   2.31528
   A47        1.86662   0.00390   0.00000   0.00989   0.00976   1.87638
   A48        1.65572   0.00527   0.00000   0.04083   0.04077   1.69648
    D1        1.02048  -0.00005   0.00000  -0.00338  -0.00337   1.01711
    D2       -1.05878  -0.00058   0.00000  -0.01330  -0.01338  -1.07216
    D3        3.10374  -0.00007   0.00000   0.00732   0.00752   3.11126
    D4       -1.05622   0.00108   0.00000   0.01540   0.01543  -1.04079
    D5       -3.13548   0.00055   0.00000   0.00548   0.00542  -3.13005
    D6        1.02704   0.00107   0.00000   0.02609   0.02632   1.05337
    D7        3.12408   0.00037   0.00000   0.00676   0.00673   3.13081
    D8        1.04482  -0.00016   0.00000  -0.00316  -0.00328   1.04154
    D9       -1.07584   0.00036   0.00000   0.01746   0.01762  -1.05822
   D10       -0.97859   0.00092   0.00000   0.01733   0.01729  -0.96129
   D11        1.12314   0.00148   0.00000   0.02166   0.02159   1.14473
   D12       -3.07864   0.00103   0.00000   0.01087   0.01083  -3.06780
   D13        1.73802  -0.00092   0.00000  -0.01008  -0.01014   1.72787
   D14       -0.36206   0.00126   0.00000  -0.00481  -0.00472  -0.36678
   D15       -2.44468   0.00047   0.00000   0.00027   0.00022  -2.44445
   D16        1.44884   0.00076   0.00000   0.01236   0.01232   1.46115
   D17       -1.48081   0.00114   0.00000   0.01706   0.01702  -1.46379
   D18       -2.72041   0.00176   0.00000   0.02964   0.02944  -2.69097
   D19        0.63313   0.00213   0.00000   0.03434   0.03415   0.66728
   D20       -0.67128  -0.00156   0.00000  -0.01418  -0.01389  -0.68516
   D21        2.68226  -0.00119   0.00000  -0.00948  -0.00918   2.67308
   D22       -3.00110  -0.00010   0.00000   0.01140   0.01127  -2.98983
   D23        0.13828  -0.00023   0.00000  -0.00596  -0.00602   0.13226
   D24       -0.04317  -0.00029   0.00000   0.00865   0.00852  -0.03465
   D25        3.09621  -0.00042   0.00000  -0.00872  -0.00877   3.08744
   D26        3.02847  -0.00027   0.00000  -0.01851  -0.01852   3.00995
   D27        1.31326  -0.00491   0.00000  -0.04428  -0.04392   1.26934
   D28       -0.20861   0.00094   0.00000   0.02671   0.02652  -0.18209
   D29        0.06945  -0.00020   0.00000  -0.01678  -0.01679   0.05266
   D30       -1.64576  -0.00483   0.00000  -0.04255  -0.04219  -1.68796
   D31        3.11555   0.00102   0.00000   0.02845   0.02825  -3.13938
   D32        0.00076   0.00072   0.00000   0.00356   0.00355   0.00431
   D33        3.11126  -0.00037   0.00000  -0.01748  -0.01732   3.09393
   D34       -3.13834   0.00087   0.00000   0.02313   0.02300  -3.11534
   D35       -0.02784  -0.00022   0.00000   0.00209   0.00212  -0.02572
   D36        0.04194  -0.00098   0.00000  -0.01465  -0.01443   0.02752
   D37        2.95483  -0.00049   0.00000  -0.00266  -0.00249   2.95234
   D38       -3.07211   0.00000   0.00000   0.00409   0.00422  -3.06788
   D39       -0.15922   0.00049   0.00000   0.01608   0.01616  -0.14306
   D40       -0.06904   0.00068   0.00000   0.01913   0.01908  -0.04996
   D41        1.77512   0.00276   0.00000   0.02849   0.02853   1.80365
   D42       -3.11514  -0.00048   0.00000  -0.02615  -0.02598  -3.14112
   D43       -2.98789   0.00013   0.00000   0.00547   0.00559  -2.98231
   D44       -1.14373   0.00221   0.00000   0.01482   0.01503  -1.12870
   D45        0.24920  -0.00103   0.00000  -0.03982  -0.03948   0.20972
   D46       -2.17962   0.00280   0.00000  -0.01664  -0.01665  -2.19627
   D47        1.99580   0.00041   0.00000  -0.03098  -0.03101   1.96479
   D48       -0.11863   0.00020   0.00000  -0.02466  -0.02475  -0.14337
   D49        0.70151   0.00294   0.00000  -0.00497  -0.00491   0.69660
   D50       -1.40625   0.00055   0.00000  -0.01932  -0.01928  -1.42553
   D51        2.76251   0.00035   0.00000  -0.01300  -0.01301   2.74950
   D52        1.06811   0.00178   0.00000   0.01411   0.01410   1.08221
   D53       -0.62480   0.00146   0.00000   0.01296   0.01307  -0.61174
   D54       -0.84131  -0.00218   0.00000  -0.01467  -0.01442  -0.85573
   D55       -2.53423  -0.00249   0.00000  -0.01581  -0.01546  -2.54968
   D56        1.06221   0.00176   0.00000   0.00202   0.00173   1.06394
   D57       -3.11926   0.00149   0.00000   0.00823   0.00813  -3.11113
   D58       -0.99023   0.00149   0.00000  -0.00056  -0.00062  -0.99085
   D59        1.40058  -0.00038   0.00000   0.01078   0.01092   1.41151
   D60        2.81013   0.00008   0.00000   0.00755   0.00754   2.81767
   D61        1.34385  -0.00002   0.00000   0.01374   0.01366   1.35750
   D62       -1.68204  -0.00116   0.00000  -0.01575  -0.01557  -1.69761
   D63       -0.27250  -0.00070   0.00000  -0.01898  -0.01895  -0.29145
   D64       -1.73878  -0.00080   0.00000  -0.01278  -0.01283  -1.75162
   D65       -0.25992  -0.00081   0.00000  -0.03326  -0.03287  -0.29279
   D66        2.82170  -0.00024   0.00000  -0.00663  -0.00613   2.81557
   D67        0.72975  -0.00050   0.00000   0.01367   0.01350   0.74325
   D68       -2.35153  -0.00099   0.00000  -0.01294  -0.01329  -2.36482
   D69        0.76077  -0.00080   0.00000  -0.01615  -0.01589   0.74488
   D70       -0.98249   0.00004   0.00000  -0.01912  -0.01913  -1.00162
   D71        1.22356   0.00027   0.00000  -0.01918  -0.01955   1.20401
   D72       -1.92778   0.00245   0.00000   0.03026   0.03018  -1.89760
   D73       -0.58209   0.00078   0.00000  -0.00250  -0.00247  -0.58456
         Item               Value     Threshold  Converged?
 Maximum Force            0.020552     0.000015     NO 
 RMS     Force            0.003864     0.000010     NO 
 Maximum Displacement     0.189677     0.000060     NO 
 RMS     Displacement     0.038125     0.000040     NO 
 Predicted change in Energy=-3.964226D-03
 GradGradGradGradGradGradGradGradGradGradGradGradGradGradGradGradGradGrad

                          Input orientation:                          
 ---------------------------------------------------------------------
 Center     Atomic      Atomic             Coordinates (Angstroms)
 Number     Number       Type             X           Y           Z
 ---------------------------------------------------------------------
      1          6           0        2.728871    0.606983    0.256324
      2          6           0        2.363843   -0.873655    0.347934
      3          7           0        0.963198   -1.122286   -0.003659
      4          6           0        0.464581   -1.277707   -1.281795
      5          6           0       -0.890864   -1.293417   -1.181918
      6          7           0       -1.204721   -1.142327    0.150651
      7          6           0       -0.067280   -1.003549    0.832621
      8          6           0       -2.524720   -0.881598    0.710433
      9          7           0       -0.572306    1.761815   -0.068392
     10          8           0       -0.309140    1.396162    1.112278
     11          8           0       -1.732676    1.641852   -0.482251
     12          8           0        0.329582    2.192605   -0.785129
     13          1           0        2.081784    1.197620    0.919657
     14          1           0        2.570966    0.991822   -0.760858
     15          1           0        3.783771    0.741492    0.539651
     16          1           0        2.510779   -1.255139    1.368043
     17          1           0        2.973628   -1.489432   -0.327899
     18          1           0        1.115775   -1.345139   -2.147562
     19          1           0       -1.658786   -1.356369   -1.945879
     20          1           0        0.007910   -0.866822    1.905371
     21          1           0       -2.457936    0.015405    1.343455
     22          1           0       -2.864772   -1.752840    1.289543
     23          1           0       -3.218276   -0.676957   -0.109181
 ---------------------------------------------------------------------
                    Distance matrix (angstroms):
                    1          2          3          4          5
     1  C    0.000000
     2  C    1.527719   0.000000
     3  N    2.485068   1.465347   0.000000
     4  C    3.323383   2.535049   1.380727   0.000000
     5  C    4.333883   3.620742   2.203436   1.359211   0.000000
     6  N    4.306320   3.584097   2.173496   2.203814   1.377343
     7  C    3.277863   2.482368   1.332421   2.197451   2.195605
     8  C    5.479262   4.901992   3.568394   3.614111   2.533787
     9  N    3.512385   3.967367   3.268027   3.433099   3.267394
    10  O    3.253456   3.589029   3.034261   3.671486   3.582678
    11  O    4.639165   4.878366   3.890662   3.740459   3.132729
    12  O    3.058661   3.850195   3.464198   3.508271   3.714739
    13  H    1.098901   2.167165   2.736003   3.686324   4.411182
    14  H    1.098952   2.179983   2.761833   3.139904   4.169398
    15  H    1.100537   2.159085   3.424104   4.290903   5.381159
    16  H    2.179675   1.098973   2.072250   3.347996   4.251463
    17  H    2.190018   1.098986   2.069240   2.692593   3.962583
    18  H    3.491637   2.829748   2.160848   1.085428   2.227497
    19  H    5.287342   4.655764   3.271363   2.226181   1.085036
    20  H    3.506434   2.824195   2.149937   3.245828   3.243629
    21  H    5.332427   5.003103   3.848794   4.135841   3.247498
    22  H    6.158339   5.384980   4.089416   4.233453   3.196170
    23  H    6.095133   5.604257   4.206445   3.911440   2.635837
                    6          7          8          9         10
     6  N    0.000000
     7  C    1.333460   0.000000
     8  C    1.457304   2.463497   0.000000
     9  N    2.980263   2.951967   3.377295   0.000000
    10  O    2.858447   2.428028   3.202884   1.263701   0.000000
    11  O    2.903611   3.391251   2.901316   1.237792   2.151590
    12  O    3.788343   3.604166   4.453591   1.229917   2.154633
    13  H    4.107047   3.077531   5.058340   2.887690   2.406874
    14  H    4.431845   3.671651   5.624982   3.309465   3.459356
    15  H    5.346508   4.238112   6.516184   4.515106   4.184306
    16  H    3.911484   2.645063   5.091977   4.546511   3.879015
    17  H    4.219963   3.290897   5.628448   4.817841   4.601883
    18  H    3.272249   3.224561   4.651474   4.101918   4.491289
    19  H    2.155789   3.221403   2.833945   3.798482   4.330161
    20  H    2.150678   1.084039   2.800412   3.337981   2.418804
    21  H    2.081748   2.648482   1.099905   2.932381   2.564616
    22  H    2.103704   2.931924   1.100030   4.410463   4.059419
    23  H    2.082904   3.304910   1.093007   3.598670   3.775295
                   11         12         13         14         15
    11  O    0.000000
    12  O    2.155916   0.000000
    13  H    4.088129   2.639414   0.000000
    14  H    4.361364   2.542886   1.762324   0.000000
    15  H    5.682088   3.973939   1.802558   1.795797   0.000000
    16  H    5.461049   4.613102   2.530042   3.095913   2.508641
    17  H    5.654915   4.556033   3.093870   2.550728   2.527053
    18  H    4.450736   3.871687   4.099590   3.082519   4.323581
    19  H    3.337214   4.230386   5.359666   4.980872   6.340371
    20  H    3.876058   4.086852   3.087799   4.139153   4.325389
    21  H    2.550400   4.128115   4.710233   5.538175   6.334999
    22  H    3.993098   5.484040   5.771520   6.425306   7.140529
    23  H    2.779041   4.612872   5.715172   6.060102   7.173677
                   16         17         18         19         20
    16  H    0.000000
    17  H    1.773511   0.000000
    18  H    3.783334   2.604536   0.000000
    19  H    5.327063   4.908648   2.781904   0.000000
    20  H    2.589182   3.764388   4.228760   4.224885   0.000000
    21  H    5.128646   5.878762   5.177808   3.652413   2.678520
    22  H    5.399112   6.064026   5.274909   3.475564   3.068643
    23  H    5.944624   6.248810   4.835852   2.503411   3.808247
                   21         22         23
    21  H    0.000000
    22  H    1.815244   0.000000
    23  H    1.779785   1.799700   0.000000
 Stoichiometry    C6H11N3O3
 Framework group  C1[X(C6H11N3O3)]
 Deg. of freedom    63
 Full point group                 C1      NOp   1
 Largest Abelian subgroup         C1      NOp   1
 Largest concise Abelian subgroup C1      NOp   1
                         Standard orientation:                         
 ---------------------------------------------------------------------
 Center     Atomic      Atomic             Coordinates (Angstroms)
 Number     Number       Type             X           Y           Z
 ---------------------------------------------------------------------
      1          6           0       -2.730044    0.662526   -0.252485
      2          6           0       -2.418797   -0.829471   -0.357338
      3          7           0       -1.027552   -1.131464   -0.010238
      4          6           0       -0.533109   -1.315734    1.265684
      5          6           0        0.820748   -1.379459    1.163395
      6          7           0        1.138018   -1.228350   -0.168364
      7          6           0        0.005388   -1.042791   -0.847208
      8          6           0        2.465794   -1.010598   -0.728124
      9          7           0        0.611090    1.694722    0.076512
     10          8           0        0.333281    1.348950   -1.106790
     11          8           0        1.766945    1.529441    0.487378
     12          8           0       -0.273682    2.151588    0.798416
     13          1           0       -2.062983    1.235117   -0.911844
     14          1           0       -2.556959    1.032673    0.767676
     15          1           0       -3.779793    0.837420   -0.532877
     16          1           0       -2.580803   -1.196635   -1.380415
     17          1           0       -3.049470   -1.428637    0.314244
     18          1           0       -1.185120   -1.367070    2.131940
     19          1           0        1.586949   -1.476621    1.925496
     20          1           0       -0.066296   -0.894235   -1.918625
     21          1           0        2.430544   -0.106368   -1.353357
     22          1           0        2.773395   -1.888532   -1.315218
     23          1           0        3.167408   -0.838147    0.092037
 ---------------------------------------------------------------------
 Rotational constants (GHZ):           1.1941933           0.9884105           0.6997420
 Standard basis: def2SVP (5D, 7F)
 There are   235 symmetry adapted cartesian basis functions of A   symmetry.
 There are   223 symmetry adapted basis functions of A   symmetry.
   223 basis functions,   377 primitive gaussians,   235 cartesian basis functions
    46 alpha electrons       46 beta electrons
       nuclear repulsion energy       790.4721639280 Hartrees.
 NAtoms=   23 NActive=   23 NUniq=   23 SFac= 1.00D+00 NAtFMM=   60 NAOKFM=F Big=F
 Integral buffers will be    131072 words long.
 Raffenetti 2 integral format.
 Two-electron integral symmetry is turned on.
 Nuclear repulsion after empirical dispersion term =      790.4550001330 Hartrees.
 Standard density basis: W06 (5D, 7F)
   709 Density fitting functions
 There are   709 symmetry adapted density basis functions of A   symmetry.
 One-electron integrals computed using PRISM.
   1 Symmetry operations used in ECPInt.
 ECPInt:  NShTT=    5565 NPrTT=   20089 LenC2=    5492 LenP2D=   15241.
 LDataN:  DoStor=T MaxTD1= 4 Len=   56
 NBasis=   223 RedAO= T EigKep=  1.41D-03  NBF=   223
 NBsUse=   223 1.00D-06 EigRej= -1.00D+00 NBFU=   223
 Initial guess from the checkpoint file:  "c1c2im_no3.jgf"
 B after Tr=     0.000000    0.000000    0.000000
         Rot=    0.999984   -0.005158    0.000083   -0.002150 Ang=  -0.64 deg.
 ExpMin= 1.22D-01 ExpMax= 2.27D+03 ExpMxC= 3.41D+02 IAcc=3 IRadAn=         5 AccDes= 0.00D+00
 Harris functional with IExCor= 4639 and IRadAn=       5 diagonalized for initial guess.
 HarFok:  IExCor= 4639 AccDes= 0.00D+00 IRadAn=         5 IDoV= 1 UseB2=F ITyADJ=14
 ICtDFT=  3500011 ScaDFX=  1.000000  1.000000  1.000000  1.000000
 FoFCou: FMM=F IPFlag=           0 FMFlag=      100000 FMFlg1=           0
         NFxFlg=           0 DoJE=T BraDBF=F KetDBF=T FulRan=T
         wScrn=  0.000000 ICntrl=       500 IOpCl=  0 I1Cent=   200000004 NGrid=           0
         NMat0=    1 NMatS0=      1 NMatT0=    0 NMatD0=    1 NMtDS0=    0 NMtDT0=    0
 Petite list used in FoFCou.
 Requested convergence on RMS density matrix=1.00D-08 within 128 cycles.
 Requested convergence on MAX density matrix=1.00D-06.
 Requested convergence on             energy=1.00D-06.
 No special actions if energy rises.
 Integral accuracy reduced to 1.0D-05 until final iterations.
 Initial convergence to 1.0D-05 achieved.  Increase integral accuracy.
 SCF Done:  E(RwB97XD) =  -624.389408655     A.U. after   14 cycles
            NFock= 14  Conv=0.44D-08     -V/T= 2.0089
   1 Symmetry operations used in ECPInt.
 ECPInt:  NShTT=    5565 NPrTT=   20089 LenC2=    5492 LenP2D=   15241.
 LDataN:  DoStor=T MaxTD1= 5 Len=  102
 Calling FoFJK, ICntrl=      2127 FMM=F ISym2X=0 I1Cent= 0 IOpClX= 0 NMat=1 NMatS=1 NMatT=0.
 ***** Axes restored to original set *****
 -------------------------------------------------------------------
 Center     Atomic                   Forces (Hartrees/Bohr)
 Number     Number              X              Y              Z
 -------------------------------------------------------------------
      1        6           0.000435231   -0.003506896    0.000914279
      2        6           0.000431107    0.004281592   -0.000391411
      3        7          -0.001358304    0.000731347    0.002012012
      4        6          -0.001757414   -0.000364292   -0.001051529
      5        6           0.001363406    0.000329164   -0.001714269
      6        7           0.001877205    0.002868758    0.001743778
      7        6          -0.000365776   -0.004702194   -0.001915371
      8        6          -0.000034994   -0.003216967    0.004811869
      9        7           0.000249968   -0.000852496   -0.000756443
     10        8           0.000237061    0.003115330    0.004666462
     11        8          -0.000099803    0.001010081   -0.001764931
     12        8          -0.002074106    0.001367369   -0.001744055
     13        1          -0.000166058    0.000135646   -0.001386842
     14        1           0.000177907   -0.000244667    0.001228093
     15        1          -0.000353766   -0.000888466   -0.000257771
     16        1           0.000309371   -0.000752617   -0.000008237
     17        1           0.000264623   -0.000747005    0.000337612
     18        1          -0.000308434    0.000163432    0.000067722
     19        1           0.000281801    0.000050903   -0.000063832
     20        1           0.000142320    0.001104989   -0.000221693
     21        1           0.001020331   -0.000576955   -0.003448488
     22        1          -0.000273888    0.000077563   -0.000729408
     23        1           0.000002210    0.000616380   -0.000327550
 -------------------------------------------------------------------
 Cartesian Forces:  Max     0.004811869 RMS     0.001659178

 GradGradGradGradGradGradGradGradGradGradGradGradGradGradGradGradGradGrad
 Berny optimization.
 Using GEDIIS/GDIIS optimizer.
 FormGI is forming the generalized inverse of G from B-inverse, IUseBI=4.
 Internal  Forces:  Max     0.003267959 RMS     0.000738839
 Search for a local minimum.
 Step number   2 out of a maximum of  138
 All quantities printed in internal units (Hartrees-Bohrs-Radians)
 Mixed Optimization -- En-DIIS/RFO-DIIS
 Update second derivatives using D2CorX and points    1    2
 DE= -3.99D-03 DEPred=-3.96D-03 R= 1.01D+00
 TightC=F SS=  1.41D+00  RLast= 2.90D-01 DXNew= 5.0454D-01 8.7004D-01
 Trust test= 1.01D+00 RLast= 2.90D-01 DXMaxT set to 5.05D-01
 ITU=  1  0
 Use linear search instead of GDIIS.
     Eigenvalues ---    0.00822   0.01258   0.01314   0.01752   0.02029
     Eigenvalues ---    0.02055   0.02297   0.02360   0.02432   0.02487
     Eigenvalues ---    0.02552   0.02765   0.03169   0.03659   0.03917
     Eigenvalues ---    0.04218   0.04402   0.05381   0.05609   0.05693
     Eigenvalues ---    0.06260   0.07502   0.08188   0.08341   0.09037
     Eigenvalues ---    0.09534   0.09603   0.10740   0.10998   0.11646
     Eigenvalues ---    0.13286   0.14235   0.14666   0.15524   0.15966
     Eigenvalues ---    0.15995   0.18403   0.18676   0.19689   0.22755
     Eigenvalues ---    0.23685   0.28366   0.31747   0.33370   0.34008
     Eigenvalues ---    0.34343   0.34374   0.34512   0.34743   0.34967
     Eigenvalues ---    0.35145   0.35392   0.36137   0.36561   0.36985
     Eigenvalues ---    0.43602   0.44405   0.50723   0.54545   0.55143
     Eigenvalues ---    0.73795   0.89423   0.89530
 RFO step:  Lambda=-7.02028792D-04 EMin= 8.21600072D-03
 Quartic linear search produced a step of  0.14047.
 Iteration  1 RMS(Cart)=  0.01313397 RMS(Int)=  0.00009251
 Iteration  2 RMS(Cart)=  0.00010624 RMS(Int)=  0.00004601
 Iteration  3 RMS(Cart)=  0.00000001 RMS(Int)=  0.00004601
 Variable       Old X    -DE/DX   Delta X   Delta X   Delta X     New X
                                 (Linear)    (Quad)   (Total)
    R1        2.88697  -0.00327   0.00067  -0.01253  -0.01188   2.87509
    R2        2.07662  -0.00019   0.00258  -0.00066   0.00191   2.07853
    R3        2.07672  -0.00026   0.00283  -0.00279   0.00001   2.07673
    R4        2.07971  -0.00051   0.00301  -0.00291   0.00010   2.07982
    R5        2.76910   0.00000   0.00157  -0.00155   0.00001   2.76912
    R6        2.07676   0.00030   0.00136   0.00042   0.00178   2.07854
    R7        2.07678   0.00036   0.00138   0.00061   0.00199   2.07877
    R8        2.60920   0.00122   0.00197   0.00215   0.00411   2.61331
    R9        2.51791  -0.00166  -0.00002  -0.00425  -0.00426   2.51365
   R10        2.56854  -0.00208   0.00080  -0.00407  -0.00330   2.56524
   R11        2.05116  -0.00025   0.00265  -0.00186   0.00079   2.05195
   R12        2.60280   0.00128   0.00207   0.00221   0.00428   2.60708
   R13        2.05042  -0.00016   0.00259  -0.00156   0.00103   2.05146
   R14        2.51987  -0.00185   0.00035  -0.00514  -0.00481   2.51507
   R15        2.75391  -0.00069   0.00092  -0.00328  -0.00241   2.75150
   R16        4.58831   0.00181   0.02014   0.03580   0.05607   4.64437
   R17        2.04854   0.00022   0.00244  -0.00038   0.00211   2.05065
   R18        2.07852  -0.00163   0.00248  -0.00622  -0.00377   2.07475
   R19        2.07876  -0.00036   0.00237  -0.00216   0.00021   2.07897
   R20        2.06548   0.00036   0.00162   0.00050   0.00212   2.06760
   R21        2.38805   0.00312   0.00393   0.00363   0.00759   2.39564
   R22        2.33909   0.00029   0.00326  -0.00040   0.00289   2.34198
   R23        2.32421   0.00020   0.00285  -0.00096   0.00191   2.32611
   R24        4.54833   0.00001   0.00677   0.02322   0.02999   4.57832
   R25        4.57088   0.00024   0.00347   0.01372   0.01709   4.58797
   R26        4.81956   0.00087   0.01694   0.02304   0.03998   4.85954
   R27        4.80536   0.00142   0.01250   0.05788   0.07038   4.87574
    A1        1.92199   0.00054  -0.00001   0.01008   0.01006   1.93205
    A2        1.93967  -0.00003   0.00211   0.00029   0.00242   1.94209
    A3        1.90927  -0.00067   0.00019  -0.00751  -0.00733   1.90193
    A4        1.86073  -0.00051  -0.00319  -0.00976  -0.01297   1.84776
    A5        1.92126   0.00030   0.00105   0.00539   0.00647   1.92773
    A6        1.91051   0.00039  -0.00019   0.00167   0.00149   1.91200
    A7        1.95891   0.00023   0.00588   0.00056   0.00635   1.96526
    A8        1.93922   0.00027   0.00013   0.00382   0.00397   1.94319
    A9        1.95368   0.00025   0.00151   0.00190   0.00344   1.95711
   A10        1.86672  -0.00006  -0.00203   0.00010  -0.00200   1.86472
   A11        1.86266  -0.00028  -0.00273   0.00030  -0.00251   1.86015
   A12        1.87774  -0.00047  -0.00319  -0.00721  -0.01045   1.86729
   A13        2.19739  -0.00035   0.00148   0.00056   0.00204   2.19943
   A14        2.18160   0.00008   0.00044  -0.00223  -0.00183   2.17977
   A15        1.88782   0.00029  -0.00199   0.00216   0.00021   1.88803
   A16        1.86858  -0.00019   0.00052  -0.00088  -0.00039   1.86819
   A17        2.12787   0.00029  -0.00014   0.00174   0.00159   2.12946
   A18        2.28653  -0.00010  -0.00040  -0.00092  -0.00133   2.28521
   A19        1.87241  -0.00050   0.00068  -0.00249  -0.00182   1.87059
   A20        2.28460   0.00001  -0.00067  -0.00021  -0.00089   2.28371
   A21        2.12503   0.00049  -0.00011   0.00298   0.00286   2.12789
   A22        1.88793   0.00051  -0.00223   0.00332   0.00110   1.88904
   A23        2.21138  -0.00045   0.00212   0.00125   0.00337   2.21474
   A24        2.16224  -0.00000   0.00047  -0.00267  -0.00228   2.15996
   A25        1.90650  -0.00012   0.00320  -0.00243   0.00072   1.90722
   A26        1.81049   0.00009  -0.00009  -0.00258  -0.00273   1.80776
   A27        2.18793   0.00006  -0.00135   0.00140  -0.00013   2.18781
   A28        1.64767   0.00044   0.00241  -0.00130   0.00104   1.64871
   A29        2.18756   0.00008  -0.00141   0.00180   0.00024   2.18779
   A30        1.88807  -0.00114   0.00129  -0.01355  -0.01239   1.87569
   A31        1.91827   0.00038  -0.00056   0.00949   0.00897   1.92724
   A32        1.89675   0.00011   0.00049  -0.00491  -0.00452   1.89223
   A33        1.94088   0.00148   0.00127   0.01322   0.01451   1.95540
   A34        1.89379  -0.00079  -0.00178  -0.00698  -0.00883   1.88496
   A35        1.92506  -0.00009  -0.00069   0.00188   0.00121   1.92627
   A36        2.07096   0.00062  -0.00092   0.00568   0.00476   2.07572
   A37        2.08645   0.00069  -0.00017   0.00455   0.00438   2.09083
   A38        2.12531  -0.00131   0.00124  -0.01045  -0.00925   2.11605
   A39        1.77125  -0.00089   0.00057  -0.00785  -0.00721   1.76403
   A40        1.37994  -0.00079  -0.00059  -0.00756  -0.00818   1.37177
[...]
 734,0.08641386,0.00102611,-0.01210076,0.03205250,0.00132153,0.00132927
 ,-0.00019047,-0.00023714,-0.00005846,0.00022198,-0.00036540,0.00003631
 ,-0.00006678,0.00012465,0.00005865,-0.00028920,-0.00014896,0.00015035,
 -0.00000125,-0.00001846,-0.00008085,-0.00001043,0.00062255,0.00050216,
 -0.00140258,0.00029725,-0.00029878,0.00079174,-0.00045188,-0.00016969,
 0.00020668,-0.00019388,-0.00067381,0.00074159,-0.00100861,0.00598757,-
 0.01662573,0.00135955,0.08586904,-0.00597882,0.08914301,-0.30185717,-0
 .00028980,-0.00231345,0.00261611,0.00064329,0.00025080,0.00040095,0.00
 010813,0.00007058,-0.00008392,0.00016168,-0.00006299,-0.00004197,0.000
 14963,0.00004949,0.00018703,-0.00037392,0.00015258,0.00003296,-0.00002
 884,-0.00000251,0.00002871,0.00123648,0.00078776,-0.00187214,0.0003132
 0,-0.00038238,0.00092146,-0.00066302,-0.00032090,0.00019315,-0.0019964
 3,0.00040673,0.00083323,-0.00233739,0.00663572,-0.01411131,0.00712287,
 -0.09600619,0.31770271,-0.28612533,-0.02325053,-0.09361825,-0.00691133
 ,0.00266940,-0.00208757,-0.00011746,-0.00198353,0.00013234,0.00037080,
 -0.00011347,0.00061215,-0.00031851,0.00002571,0.00015877,-0.00038241,-
 0.00003782,-0.00033818,0.00091293,-0.00004636,-0.00048410,0.00010447,0
 .00008118,-0.00006296,0.00095046,-0.00007620,0.00024604,-0.00072705,0.
 00035531,0.00004690,-0.00046266,-0.00010896,-0.00017290,-0.00071284,0.
 00044160,-0.00019424,-0.01249432,-0.00491787,-0.00893723,0.00177008,0.
 00035250,0.00214406,0.30384686,-0.01999822,-0.04943271,-0.00843010,-0.
 02836866,-0.00030089,-0.01162525,-0.00456035,-0.00692612,0.00036387,0.
 00029710,-0.00031786,0.00097017,-0.00067244,0.00007730,0.00032719,-0.0
 0113294,0.00014009,-0.00073702,0.00138540,-0.00099910,-0.00098706,0.00
 018468,0.00021147,-0.00017600,-0.00164424,-0.00041485,0.00048877,0.000
 75797,0.00012673,-0.00039891,0.00085157,0.00039995,0.00016829,0.001464
 23,-0.00051868,-0.00012099,0.01395311,0.00355051,0.00939576,0.01024467
 ,0.00082456,0.00202386,0.02706652,0.05179235,-0.09421270,-0.00955322,-
 0.08461481,0.00250883,0.00068112,-0.00142233,0.00078572,0.00094534,0.0
 0104650,0.00004165,0.00018066,-0.00008458,0.00028168,-0.00011903,-0.00
 001324,-0.00002637,-0.00001901,0.00021595,-0.00011202,-0.00012241,0.00
 003884,0.00002171,0.00003488,0.00001277,0.00028351,0.00047848,-0.00119
 040,0.00064446,-0.00038641,0.00037843,-0.00017248,-0.00007971,0.000155
 90,-0.00076039,0.00016286,0.00069414,0.01499190,0.00453634,0.00761134,
 -0.02692101,-0.00521904,-0.00714443,0.10243002,0.00870197,0.08370141,0
 .00092058,-0.00334934,0.00901113,-0.05144696,0.00816954,-0.01130286,-0
 .01308777,0.00983936,-0.03974859,-0.00402884,0.00085146,0.00270837,-0.
 00119414,-0.00033590,-0.00127854,-0.00028753,0.00012198,-0.00064870,0.
 00188248,-0.00047592,-0.00218634,0.00013066,-0.00004408,-0.00001158,-0
 .00045210,-0.00019364,0.00004115,0.00015068,0.00014167,0.00001976,0.00
 028791,0.00015898,0.00010346,0.00033657,0.00003658,-0.00007670,0.00012
 860,0.00012254,-0.00065360,0.00033326,-0.00228223,-0.00048164,0.000251
 70,-0.00013876,0.00021256,0.06372963,0.00156790,-0.01109894,0.03031395
 ,0.01082125,-0.08301269,0.09281955,-0.00155053,0.00079258,-0.00641090,
 -0.00140036,0.00056062,-0.00025335,-0.00009444,0.00012083,-0.00056773,
 0.00037095,-0.00001446,0.00013749,-0.00053840,0.00052822,0.00016420,0.
 00000998,-0.00007962,0.00001368,-0.00045668,-0.00026701,0.00067553,-0.
 00000056,0.00019448,-0.00047354,0.00017166,0.00009585,-0.00008384,0.00
 049041,0.00005970,-0.00035450,0.00055845,0.00104325,-0.00001902,-0.002
 10109,-0.00570543,-0.00080359,-0.00011322,0.00127879,-0.00028433,-0.00
 527441,0.08885614,0.00079162,-0.00020342,0.00204667,-0.02405085,0.0897
 7487,-0.28765453,-0.00190176,0.00122493,-0.00894020,-0.00096558,0.0004
 1426,0.00155472,-0.00010618,-0.00012397,-0.00024338,-0.00028391,-0.000
 42510,0.00010591,0.00171020,-0.00022344,0.00091275,0.00006202,0.000049
 06,-0.00002582,0.00016296,-0.00000018,-0.00009392,-0.00005255,0.000033
 35,0.00007335,-0.00007978,0.00002677,0.00001513,-0.00012403,0.00004271
 ,0.00007228,0.00009391,0.00014121,0.00046510,0.00002330,-0.00028302,0.
 00136864,0.00021705,0.00041603,0.00042933,0.02744613,-0.09845002,0.304
 33765,0.00808545,-0.00589011,-0.00679838,-0.12562264,0.08164948,0.0845
 7054,-0.03081106,0.01555896,0.02306992,0.00198040,-0.00032479,0.001869
 86,-0.00074075,-0.00009831,0.00086718,-0.00232596,-0.00060201,-0.00026
 548,-0.00106879,0.00139795,-0.00468443,0.00003797,-0.00032035,-0.00040
 924,-0.00045315,-0.00024221,0.00024548,0.00020730,0.00038718,-0.000104
 13,0.00021980,0.00015666,0.00003092,0.00033838,0.00004217,-0.00006746,
 -0.00046952,-0.00217175,0.00045277,0.00013333,0.00039169,0.00029513,0.
 00012183,0.00059502,-0.00001922,0.00328813,-0.00281298,-0.00256083,0.1
 4742606,0.01756999,-0.01760628,-0.01955393,0.08736249,-0.13794124,-0.0
 9741660,-0.00519396,0.00379416,0.00440123,-0.00006861,0.00035329,-0.00
 017860,0.00030083,-0.00000959,-0.00001055,-0.00035992,-0.00008888,0.00
 061136,-0.00144693,0.00023535,-0.00029657,0.00000213,-0.00006858,-0.00
 004414,-0.00068746,-0.00000721,-0.00033289,0.00044840,0.00008141,0.000
 15262,0.00039066,0.00008265,0.00017466,0.00035636,0.00000629,0.0002031
 3,-0.00367985,-0.00512898,0.00071190,0.00045641,0.00142473,0.00043807,
 -0.00039836,0.00074631,-0.00006880,-0.00729151,0.00666444,0.00712754,-
 0.08806309,0.14755063,-0.00217956,0.00245932,0.00296901,0.09519075,-0.
 09671077,-0.15808681,-0.01071708,0.00658145,0.00717116,-0.00038027,0.0
 0026859,0.00134410,-0.00008060,0.00030912,0.00054962,-0.00108540,-0.00
 008001,-0.00014672,-0.00009086,0.00006597,-0.00097939,-0.00002293,-0.0
 0018567,-0.00007297,-0.00027549,-0.00000946,-0.00013249,0.00013230,-0.
 00000834,0.00008913,0.00018132,0.00003943,0.00006737,0.00012620,-0.000
 04473,0.00002885,-0.00021502,0.00090187,0.00113933,-0.00066785,-0.0000
 4997,0.00089547,-0.00007648,-0.00047199,0.00008699,0.01621942,-0.01659
 695,-0.01488404,-0.09597903,0.10392334,0.15987151,-0.00008146,0.000065
 07,-0.00007412,0.00143606,-0.00027879,0.00021927,0.01292186,0.00073417
 ,-0.01570153,-0.17525913,-0.00858623,0.15655677,-0.00016875,-0.0005730
 1,0.02074390,-0.00525196,0.00010239,0.00068517,-0.00263116,-0.00016435
 ,-0.00375323,0.00066705,-0.00035920,0.00093604,-0.00030870,-0.00015570
 ,0.00031527,-0.00002681,0.00001295,-0.00011775,0.00014815,0.00002131,-
 0.00008060,0.00012927,-0.00014677,-0.00028556,0.00007659,-0.00000007,0
 .00006795,0.00005145,-0.00013464,-0.00003133,-0.00002512,0.00000062,0.
 00000518,-0.00005862,0.00008462,0.00015163,-0.00011237,0.00034918,0.00
 023923,0.16751923,0.00007188,0.00009108,-0.00031863,0.00003440,-0.0010
 3257,0.00026714,0.00092456,-0.00239777,-0.00065183,-0.00958678,-0.0274
 5336,0.01119089,0.00010048,0.00186817,0.00025129,-0.00052356,0.0054512
 1,-0.00026336,-0.00005290,0.00316063,0.00000987,0.00038611,0.00113437,
 0.00001568,0.00099046,0.00057629,-0.00123349,0.00004408,-0.00038532,0.
 00055488,-0.00039822,-0.00015303,0.00005083,-0.00074872,0.00030913,0.0
 0084917,-0.00003840,-0.00003080,0.00002258,-0.00024655,-0.00023535,-0.
 00002932,0.00000014,-0.00008576,0.00017869,0.00002874,-0.00009496,0.00
 002100,0.00031534,-0.00003571,-0.00016657,0.00891969,0.02097161,-0.000
 16705,-0.00005267,-0.00007756,0.00156132,0.00008077,0.00088479,0.01807
 812,0.00062940,-0.01749468,0.14858967,0.00939288,-0.25805959,-0.002796
 64,-0.00024819,0.00679138,-0.00184194,0.00033610,0.00196472,-0.0045612
 8,-0.00012653,-0.00303685,0.00023878,0.00002875,0.00042339,0.00024010,
 0.00010406,-0.00037630,0.00001734,-0.00006615,0.00018331,-0.00009896,0
 .00005280,0.00002225,-0.00026927,0.00020216,0.00020774,0.00005456,0.00
 004228,0.00002328,-0.00011522,-0.00018719,-0.00002804,0.00001321,-0.00
 005184,0.00008465,-0.00010520,0.00010212,0.00023579,-0.00057652,0.0001
 6312,-0.00008688,-0.15933866,-0.01042850,0.26859045,-0.00002799,0.0000
 2210,-0.00003271,0.00054716,0.00028510,-0.00090809,-0.00485317,-0.0003
 3494,0.00056596,-0.00286997,0.00084823,-0.01896179,-0.22617687,0.00515
 630,-0.16308443,0.01153465,-0.00024869,0.01117501,-0.00112227,0.000030
 94,0.00350186,0.00137614,0.00020931,-0.00013245,-0.00014378,0.00001028
 ,-0.00027097,-0.00002409,-0.00002259,0.00007384,-0.00008257,0.00028872
 ,0.00022929,-0.00002758,0.00007303,0.00010714,-0.00002456,-0.00000905,
 0.00000294,0.00000323,-0.00000414,0.00001250,0.00000376,-0.00003782,0.
 00001280,-0.00035158,-0.00007102,-0.00008023,0.00003480,0.00000275,0.0
 0002251,0.00049092,-0.00012541,0.00035827,0.22107804,0.00027254,-0.000
 03702,0.00014641,-0.00042167,0.00132045,-0.00012975,-0.00030748,0.0053
 2185,0.00063224,-0.00112503,0.00210305,-0.00133243,0.00773121,-0.02776
 141,0.00740539,-0.00046598,-0.00224109,-0.00014874,0.00042817,0.003378
 34,-0.00008509,-0.00005672,-0.00125279,0.00045191,-0.00137402,0.000292
 21,-0.00134287,0.00036753,-0.00052164,0.00080316,0.00085123,0.00033891
 ,0.00069261,0.00026182,0.00007921,0.00025554,-0.00005105,-0.00001262,-
 0.00002165,-0.00002673,-0.00001660,-0.00001239,0.00004099,0.00005197,-
 0.00003246,-0.00022097,-0.00006365,0.00002451,-0.00007368,-0.00004111,
 -0.00011266,0.00016238,-0.00321024,-0.00009666,-0.00589370,0.02075428,
 0.00006403,-0.00002233,0.00002028,-0.00034358,0.00005029,0.00060112,0.
 00304808,0.00058536,0.00162092,0.00434504,-0.00025474,0.00955040,-0.15
 434645,0.00544356,-0.20871260,-0.02266054,0.00012138,-0.01643574,0.004
 22976,0.00013073,-0.00431276,-0.00152835,0.00005161,0.00117579,-0.0007
 2697,0.00000895,-0.00043858,0.00014371,-0.00014653,0.00029320,0.000469
 20,0.00038464,0.00021915,0.00018413,0.00011806,-0.00005458,-0.00001409
 ,0.00000483,-0.00001637,-0.00001534,0.00000438,0.00000065,0.00002271,0
 .00002331,-0.00000379,0.00017783,0.00001523,0.00010830,-0.00002956,-0.
 00001921,-0.00002049,-0.00046458,-0.00015994,-0.00017266,0.16759400,-0
 .00651050,0.21665993,-0.00017646,0.00005926,-0.00017440,0.00217621,-0.
 00005504,0.00136174,0.00728188,0.00185740,0.02603782,-0.00458378,-0.00
 038205,0.00179781,-0.00513578,0.00005324,-0.00095866,0.00388404,-0.001
 51250,-0.02803413,-0.06341217,-0.00315879,-0.02338532,0.00198271,-0.00
 003101,-0.00144537,0.00012853,0.00003705,-0.00020970,-0.00000778,0.000
 12491,0.00012590,-0.00016807,-0.00006712,0.00008400,-0.00020628,-0.000
 06192,0.00017383,0.00006233,-0.00010184,0.00007888,0.00008668,0.000042
 70,-0.00005324,-0.00003587,-0.00004045,0.00001220,-0.00044187,0.000332
 02,-0.00040946,-0.00004221,0.00004647,-0.00026351,0.00084328,-0.000177
 43,0.00081483,0.00073333,0.00007080,-0.00097027,0.05750514,-0.00025436
 ,0.00008977,0.00020941,0.00013283,-0.00217138,-0.00034453,0.00082214,0
 .00122178,0.00195485,-0.00152822,0.00299953,-0.00086891,0.00106635,0.0
 0322959,-0.00076131,-0.00080310,0.00078193,-0.00029746,-0.00304986,-0.
 02811404,-0.02683136,-0.00034087,-0.00219697,-0.00025109,0.00026591,-0
 .00041197,0.00039585,0.00026463,-0.00243669,0.00025076,-0.00031165,-0.
 00001867,-0.00024140,0.00014949,0.00027460,-0.00031374,-0.00011798,-0.
 00012891,0.00006768,0.00002371,-0.00010763,-0.00005227,0.00003110,-0.0
 0008624,-0.00000949,0.00017165,0.00013880,0.00040127,0.00014062,0.0000
 3642,-0.00008106,-0.00009444,0.00156025,0.00013462,0.00010005,0.001524
 78,0.00005666,0.00315913,0.02369342,0.00001174,0.00010740,-0.00002698,
 -0.00062824,-0.00001167,0.00047857,-0.00443383,-0.00071356,-0.00970754
 ,0.00305507,-0.00034242,0.00149197,-0.00203209,-0.00047772,0.00204850,
 0.00243599,-0.00021889,-0.00592089,-0.02370300,-0.02297791,-0.37315600
 ,0.00032015,-0.00019704,0.00065592,-0.00017004,-0.00020725,-0.00070737
 ,0.00029985,-0.00089899,0.00069546,0.00026187,0.00005409,0.00012520,-0
 .00016089,-0.00002857,0.00023276,0.00009688,0.00006874,-0.00000071,-0.
 00001780,-0.00004960,-0.00000204,-0.00006472,0.00000355,0.00002142,0.0
 0048803,0.00005574,0.00010245,-0.00005427,-0.00002171,0.00014962,-0.00
 021381,-0.00016283,-0.00016019,0.00007846,-0.00016950,-0.00005265,0.02
 471982,0.02595232,0.38368202,-0.00017339,0.00012554,-0.00009885,0.0005
 8186,-0.00037724,0.00028588,-0.00221289,-0.00112803,0.00306339,-0.0025
 0115,-0.00031344,-0.00114523,0.00144204,0.00108625,-0.00276858,-0.0210
 1711,0.03409411,0.00421295,0.00370295,0.00365469,0.00172939,-0.0512095
 5,0.03466842,-0.00494550,-0.00647895,-0.00224338,0.00146641,0.00134735
 ,-0.00006271,0.00037567,0.00164177,0.00224930,-0.00111651,0.00206447,0
 .00001611,-0.00134511,-0.00024607,0.00005626,-0.00007214,-0.00006147,0
 .00004814,0.00003810,-0.00000189,-0.00016254,-0.00000816,-0.00003774,0
 .00001028,-0.00001453,-0.00003335,-0.00004102,-0.00000524,-0.00002446,
 -0.00016128,-0.00001544,0.00007182,0.00015240,0.00007877,-0.00006152,0
 .00038965,0.00003351,0.06752883,-0.00003016,0.00003436,-0.00000682,0.0
 0039790,0.00019010,0.00012752,-0.00110210,-0.00052761,0.00074720,-0.00
 067767,0.00014632,0.00005082,-0.00007380,0.00020607,-0.00009315,0.0053
 6810,-0.00295235,-0.00173870,0.00016320,0.00141895,-0.00032951,0.04434
 471,-0.31879771,0.00656443,-0.00934388,-0.00043598,-0.00369735,0.00171
 299,-0.00167959,0.00258056,0.00475879,-0.00336121,0.00121003,0.0035959
 2,0.00059589,-0.00061535,-0.00024232,0.00008058,-0.00010151,-0.0001007
 2,0.00006304,0.00004423,0.00001064,-0.00011709,0.00000027,-0.00003571,
 -0.00002276,0.00000981,-0.00006595,-0.00005872,-0.00002372,-0.00005425
 ,0.00006305,0.00000232,0.00010629,0.00000176,-0.00010582,0.00012219,-0
 .00003508,0.00004776,-0.05107154,0.33354650,0.00009703,-0.00006802,0.0
 0006565,-0.00027565,0.00013597,-0.00015469,0.00131779,0.00003205,-0.00
 154486,0.00105656,0.00049178,0.00063028,-0.00001815,-0.00089886,0.0011
 8658,0.00973715,-0.01446306,-0.00033693,-0.00279719,-0.00147699,-0.000
 65112,-0.00643875,0.01086670,-0.05243228,0.00789570,-0.00110827,0.0065
 0766,-0.00093236,0.00159449,-0.00397989,-0.00466582,-0.00061891,-0.004
 17468,-0.00292081,0.00026521,0.00002994,0.00006892,-0.00004492,0.00005
 588,0.00005838,-0.00004617,-0.00003747,0.00000201,0.00009531,-0.000002
 13,0.00002323,0.00000834,0.00000036,0.00004152,0.00001558,0.00001156,0
 .00003308,0.00012129,-0.00000328,-0.00000199,-0.00031444,-0.00007524,-
 0.00002174,0.00025250,-0.00003136,-0.00144032,-0.00508531,0.05117535,0
 .00002150,0.00001492,-0.00000924,0.00010151,0.00015897,0.00000102,-0.0
 0009151,-0.00012788,0.00057698,-0.00087764,0.00023289,0.00145169,-0.00
 428220,-0.00047191,-0.00171585,-0.00571262,-0.01013391,0.03810821,0.00
 206200,0.00048150,0.00168878,-0.05024075,0.00355863,-0.01252285,-0.000
 78658,0.00001108,-0.00004136,0.00025880,-0.00009146,0.00007946,0.00066
 345,0.00038071,-0.00001192,0.00039369,-0.00001016,-0.00022478,-0.00003
 324,0.00000050,-0.00000167,-0.00000247,0.00001257,0.00000210,-0.000003
 00,-0.00001168,-0.00000159,-0.00004821,0.00000398,-0.00001992,-0.00001
 907,-0.00001661,-0.00002385,-0.00036729,0.00014820,-0.00010600,-0.0000
 8367,-0.00000143,0.00015082,-0.00038811,-0.00011703,-0.00037328,0.0000
 7638,-0.00029566,-0.00482670,0.05700253,-0.00005380,0.00000764,-0.0000
 2145,0.00007610,-0.00010919,0.00005721,-0.00060923,-0.00022232,0.00031
 535,0.00004329,0.00018109,-0.00075229,0.00173054,0.00037292,-0.0004396
 1,0.00104185,0.00061306,-0.01082644,0.00031553,0.00087992,0.00027985,0
 .00025965,-0.08278472,0.09739649,0.00220296,-0.00033709,0.00176137,-0.
 00005103,0.00051465,-0.00123525,-0.00212050,-0.00173452,-0.00017841,-0
 .00065816,0.00008489,-0.00007273,0.00001570,-0.00000183,0.00002065,0.0
 0001558,-0.00000500,-0.00000981,-0.00001793,-0.00000906,-0.00000223,-0
 .00000640,0.00002239,0.00000175,-0.00000349,0.00000603,-0.00001516,0.0
 0010389,-0.00001358,0.00001104,-0.00004239,-0.00010953,0.00005395,-0.0
 0031143,0.00018762,0.00016268,-0.00016210,-0.00167444,0.02796626,-0.00
 322355,0.07834094,0.00002044,-0.00001461,0.00001258,-0.00009194,0.0000
 1396,-0.00002372,0.00024079,-0.00040256,0.00002196,0.00017554,-0.00019
 334,-0.00050962,0.00169115,0.00047548,0.00155292,0.00091630,0.00244331
 ,-0.01302728,-0.00151774,-0.00028170,0.00084139,-0.00009760,0.09148924
 ,-0.30076802,-0.00012796,-0.00002373,-0.00026551,-0.00006705,-0.000003
 01,0.00019732,0.00007478,0.00006077,0.00014979,-0.00002042,0.00001559,
 0.00009496,-0.00000115,-0.00000269,-0.00000684,-0.00000942,-0.00000553
 ,0.00000089,0.00001217,0.00001066,0.00000126,0.00002661,0.00000536,0.0
 0001150,0.00001877,0.00000594,0.00000438,0.00013897,0.00001356,0.00010
 413,-0.00007346,0.00001803,0.00022270,0.00043767,0.00040727,0.00001465
 ,-0.00042696,-0.00169955,0.00237576,-0.00302713,-0.09875817,0.32001618
 ,-0.00001215,0.00004498,-0.00003096,0.00013484,0.00029533,0.00040895,-
 0.00197834,0.00031448,0.00004775,-0.00050632,0.00017608,-0.00045382,0.
 00157374,0.00023782,-0.00180148,-0.02971267,-0.01297989,-0.01808370,-0
 .00090332,-0.00080786,0.00460782,-0.17292121,-0.09220236,-0.09933546,-
 0.00066848,0.00003295,-0.00010384,0.00038449,-0.00017506,0.00007946,0.
 00041156,0.00017841,-0.00010259,0.00025548,-0.00000856,-0.00010966,-0.
 00001777,0.00000854,0.00000140,-0.00000386,-0.00000117,0.00000724,-0.0
 0001510,-0.00003281,0.00000174,-0.00000484,-0.00000784,-0.00000920,-0.
 00017459,-0.00003835,-0.00004856,0.00003197,0.00009517,0.00002598,-0.0
 0008575,-0.00032062,0.00059166,-0.00002421,-0.00009974,0.00005060,0.00
 560209,0.00251304,0.00400812,0.00235649,0.00145491,0.00170763,0.196277
 94,-0.00002135,-0.00000529,-0.00000916,0.00004770,-0.00006802,-0.00005
 019,0.00050039,0.00009164,0.00082487,-0.00048615,-0.00016847,0.0000801
 6,-0.00021229,0.00053682,-0.00029471,0.00896990,0.00340363,0.00600611,
 0.00194420,0.00029684,-0.00097458,-0.10021664,-0.12228171,-0.08101515,
 0.00040000,0.00058061,-0.00111227,-0.00047107,-0.00053317,0.00051564,0
 .00002390,-0.00058658,0.00116090,-0.00020086,-0.00003763,0.00035497,0.
 00004768,-0.00000473,0.00001031,0.00001119,0.00000402,-0.00000701,-0.0
 0001086,0.00000832,-0.00000447,0.00000638,0.00000342,0.00000007,0.0000
 3365,0.00000458,0.00000795,-0.00000882,-0.00005735,-0.00002469,-0.0003
 4337,0.00010088,0.00016611,-0.00000560,-0.00003090,0.00002539,-0.02082
 787,-0.00668407,-0.01772054,0.00949733,0.00579015,0.00642571,0.1013225
 6,0.11963701,-0.00002790,-0.00001703,0.00001050,0.00000042,-0.00025814
 ,-0.00016163,0.00133532,-0.00003125,-0.00026598,0.00028405,0.00027918,
 0.00056484,0.00046442,0.00011330,0.00151968,0.01606985,0.00860767,0.00
 867970,0.00056047,-0.00004078,-0.00167993,-0.11001104,-0.08019080,-0.1
 3843878,0.00030655,-0.00002314,-0.00005071,-0.00019391,-0.00003842,0.0
 0010580,-0.00029054,-0.00012617,-0.00008156,-0.00020378,-0.00003854,0.
 00014281,0.00002745,0.00000442,0.00000141,0.00000884,0.00000039,-0.000
 00348,-0.00000082,0.00001042,-0.00000322,0.00001608,-0.00001341,0.0000
 0196,0.00008647,0.00001450,0.00003169,-0.00003129,-0.00013240,-0.00001
 981,-0.00018845,-0.00012064,-0.00017698,0.00028127,-0.00003057,0.00006
 721,0.00211851,0.00211184,0.00138491,-0.01915291,-0.01571503,-0.011021
 39,0.10854092,0.08563460,0.13939295\\-0.00000039,0.00000116,0.00000082
 ,0.00000015,0.00000098,0.00000078,0.00000043,0.00000039,0.00000043,0.0
 0000082,-0.00000017,0.00000016,0.00000079,-0.00000065,-0.00000031,0.00
 000052,-0.00000073,-0.00000040,0.00000002,-0.00000008,-0.00000005,0.,-
 0.00000107,-0.00000086,-0.00000091,-0.00000045,0.00000001,-0.00000124,
 -0.00000006,-0.00000045,-0.00000063,-0.00000069,-0.00000099,-0.0000007
 7,0.00000012,-0.00000045,-0.00000086,0.00000100,0.00000047,-0.00000026
 ,0.00000108,0.00000083,-0.00000061,0.00000170,0.00000116,0.00000005,0.
 00000113,0.00000089,0.00000073,0.00000120,0.00000106,0.00000121,0.0000
 0021,0.00000037,0.00000109,-0.00000102,-0.00000055,-0.00000028,0.00000
 009,0.,-0.00000035,-0.00000157,-0.00000100,-0.00000007,-0.00000106,-0.
 00000085,0.00000056,-0.00000151,-0.00000108\\\@


 Sacred cows make the best hamburger.
                               -- Mark Twain
 Job cpu time:       0 days  0 hours 31 minutes 27.9 seconds.
 Elapsed time:       0 days  0 hours  2 minutes 37.7 seconds.
 File lengths (MBytes):  RWF=    140 Int=      0 D2E=      0 Chk=      6 Scr=      1
 Normal termination of Gaussian 16 at Fri Mar  6 15:54:39 2020.
