 Entering Gaussian System, Link 0=g16
 Input=methanol.gjf
 Output=methanol.log
 Initial command:
 /opt/g16/l1.exe "/scratch/mtmjea001/methanol/Gau-27192.inp" -scrdir="/scratch/mtmjea001/methanol/"
 Entering Link 1 = /opt/g16/l1.exe PID=     27193.
  
 Copyright (c) 1988-2019, Gaussian, Inc.  All Rights Reserved.
  
 This is part of the Gaussian(R) 16 program.  It is based on
 the Gaussian(R) 09 system (copyright 2009, Gaussian, Inc.),
 the Gaussian(R) 03 system (copyright 2003, Gaussian, Inc.),
 the Gaussian(R) 98 system (copyright 1998, Gaussian, Inc.),
 the Gaussian(R) 94 system (copyright 1995, Gaussian, Inc.),
 the Gaussian 92(TM) system (copyright 1992, Gaussian, Inc.),
 the Gaussian 90(TM) system (copyright 1990, Gaussian, Inc.),
 the Gaussian 88(TM) system (copyright 1988, Gaussian, Inc.),
 the Gaussian 86(TM) system (copyright 1986, Carnegie Mellon
 University), and the Gaussian 82(TM) system (copyright 1983,
 Carnegie Mellon University). Gaussian is a federally registered
 trademark of Gaussian, Inc.
  
 This software contains proprietary and confidential information,
 including trade secrets, belonging to Gaussian, Inc.
  
 This software is provided under written license and may be
 used, copied, transmitted, or stored only in accord with that
 written license.
  
 The following legend is applicable only to US Government
 contracts under FAR:
  
                    RESTRICTED RIGHTS LEGEND
  
 Use, reproduction and disclosure by the US Government is
 subject to restrictions as set forth in subparagraphs (a)
 and (c) of the Commercial Computer Software - Restricted
 Rights clause in FAR 52.227-19.
  
 Gaussian, Inc.
 340 Quinnipiac St., Bldg. 40, Wallingford CT 06492
  
  
 ---------------------------------------------------------------
 Warning -- This program may not be used in any manner that
 competes with the business of Gaussian, Inc. or will provide
 assistance to any competitor of Gaussian, Inc.  The licensee
 of this program is prohibited from giving any competitor of
 Gaussian, Inc. access to this program.  By using this program,
 the user acknowledges that Gaussian, Inc. is engaged in the
 business of creating and licensing software in the field of
 computational chemistry and represents and warrants to the
 licensee that it is not a competitor of Gaussian, Inc. and that
 it will not use this program in any manner prohibited above.
 ---------------------------------------------------------------
  

 Cite this work as:
 Gaussian 16, Revision C.01,
 M. J. Frisch, G. W. Trucks, H. B. Schlegel, G. E. Scuseria, 
 M. A. Robb, J. R. Cheeseman, G. Scalmani, V. Barone, 
 G. A. Petersson, H. Nakatsuji, X. Li, M. Caricato, A. V. Marenich, 
 J. Bloino, B. G. Janesko, R. Gomperts, B. Mennucci, H. P. Hratchian, 
 J. V. Ortiz, A. F. Izmaylov, J. L. Sonnenberg, D. Williams-Young, 
 F. Ding, F. Lipparini, F. Egidi, J. Goings, B. Peng, A. Petrone, 
 T. Henderson, D. Ranasinghe, V. G. Zakrzewski, J. Gao, N. Rega, 
 G. Zheng, W. Liang, M. Hada, M. Ehara, K. Toyota, R. Fukuda, 
 J. Hasegawa, M. Ishida, T. Nakajima, Y. Honda, O. Kitao, H. Nakai, 
 T. Vreven, K. Throssell, J. A. Montgomery, Jr., J. E. Peralta, 
 F. Ogliaro, M. J. Bearpark, J. J. Heyd, E. N. Brothers, K. N. Kudin, 
 V. N. Staroverov, T. A. Keith, R. Kobayashi, J. Normand, 
 K. Raghavachari, A. P. Rendell, J. C. Burant, S. S. Iyengar, 
 J. Tomasi, M. Cossi, J. M. Millam, M. Klene, C. Adamo, R. Cammi, 
 J. W. Ochterski, R. L. Martin, K. Morokuma, O. Farkas, 
 J. B. Foresman, and D. J. Fox, Gaussian, Inc., Wallingford CT, 2019.
 
 ******************************************
 Gaussian 16:  ES64L-G16RevC.01  3-Jul-2019
                25-Feb-2020 
 ******************************************
 %chk=methanol.chk
 %nprocs=12
 Will use up to   12 processors via shared memory.
 Default route: test
 ---
 #G2
 ---
 1/18=20,19=15,38=1/1,3;
 2/9=110,12=2,17=6,18=5,40=1/2;
 3/5=1,6=6,7=1,11=9,25=1,30=1,71=1/1,2,3;
 4//1;
 5/5=2,38=5/2;
 6/7=2,8=2,9=2,10=2,28=1/1;
 7//1,2,3,16;
 1/18=20,19=15/3(2);
 2/9=110/2;
 99//99;
 2/9=110/2;
 3/5=1,6=6,7=1,11=9,25=1,30=1,71=1/1,2,3;
 4/5=5,16=3,69=1/1;
 5/5=2,38=5/2;
 7//1,2,3,16;
 1/18=20,19=15/3(-5);
 2/9=110/2;
 6/7=2,8=2,9=2,10=2,19=2,28=1/1;
 99/9=1/99;
 --------
 methanol
 --------
 Symbolic Z-matrix:
 Charge =  0 Multiplicity = 1
 C                     1.09505   0.04607   0.02767 
 O                     2.51075   0.03547   0.029 
 H                     0.73364   0.44141  -0.92481 
 H                     0.73364   0.66548   0.85218 
 H                     0.7319   -0.97624   0.15658 
 H                     2.80352   0.95541  -0.087 
 

 GradGradGradGradGradGradGradGradGradGradGradGradGradGradGradGradGradGrad
 Berny optimization.
 Initialization pass.
                           ----------------------------
                           !    Initial Parameters    !
                           ! (Angstroms and Degrees)  !
 --------------------------                            --------------------------
 ! Name  Definition              Value          Derivative Info.                !
 --------------------------------------------------------------------------------
 ! R1    R(1,2)                  1.4157         estimate D2E/DX2                !
 ! R2    R(1,3)                  1.0928         estimate D2E/DX2                !
 ! R3    R(1,4)                  1.0928         estimate D2E/DX2                !
 ! R4    R(1,5)                  1.0925         estimate D2E/DX2                !
 ! R5    R(2,6)                  0.9723         estimate D2E/DX2                !
 ! A1    A(2,1,3)              109.5269         estimate D2E/DX2                !
 ! A2    A(2,1,4)              109.5276         estimate D2E/DX2                !
 ! A3    A(2,1,5)              108.9818         estimate D2E/DX2                !
 ! A4    A(3,1,4)              110.0727         estimate D2E/DX2                !
 ! A5    A(3,1,5)              109.3563         estimate D2E/DX2                !
 ! A6    A(4,1,5)              109.3564         estimate D2E/DX2                !
 ! A7    A(1,2,6)              107.0911         estimate D2E/DX2                !
 ! D1    D(3,1,2,6)             60.4042         estimate D2E/DX2                !
 ! D2    D(4,1,2,6)            -60.4036         estimate D2E/DX2                !
 ! D3    D(5,1,2,6)           -179.9999         estimate D2E/DX2                !
 --------------------------------------------------------------------------------
 Trust Radius=3.00D-01 FncErr=1.00D-07 GrdErr=1.00D-07 EigMax=2.50D+02 EigMin=1.00D-04
 Number of steps in this run=     25 maximum allowed number of steps=    100.
 GradGradGradGradGradGradGradGradGradGradGradGradGradGradGradGradGradGrad

                          Input orientation:                          
 ---------------------------------------------------------------------
 Center     Atomic      Atomic             Coordinates (Angstroms)
 Number     Number       Type             X           Y           Z
 ---------------------------------------------------------------------
      1          6           0        1.095050    0.046070    0.027670
      2          8           0        2.510750    0.035470    0.029000
      3          1           0        0.733640    0.441410   -0.924810
      4          1           0        0.733640    0.665480    0.852180
      5          1           0        0.731900   -0.976240    0.156580
      6          1           0        2.803520    0.955410   -0.087000
 ---------------------------------------------------------------------
                    Distance matrix (angstroms):
                    1          2          3          4          5
     1  C    0.000000
     2  O    1.415740   0.000000
     3  H    1.092762   2.057343   0.000000
     4  H    1.092750   2.057342   1.791061   0.000000
     5  H    1.092526   2.050400   1.783014   1.783005   0.000000
     6  H    1.938793   0.972348   2.291402   2.291402   2.842923
                    6
     6  H    0.000000
 Stoichiometry    CH4O
 Framework group  C1[X(CH4O)]
 Deg. of freedom    12
 Full point group                 C1      NOp   1
 Largest Abelian subgroup         C1      NOp   1
 Largest concise Abelian subgroup C1      NOp   1
                         Standard orientation:                         
 ---------------------------------------------------------------------
 Center     Atomic      Atomic             Coordinates (Angstroms)
 Number     Number       Type             X           Y           Z
 ---------------------------------------------------------------------
      1          6           0       -0.665060   -0.019895   -0.000002
      2          8           0        0.742694    0.130262    0.000002
      3          1           0       -0.974307   -0.564429    0.895531
      4          1           0       -0.974313   -0.564408   -0.895530
      5          1           0       -1.127996    0.969703    0.000009
      6          1           0        1.125423   -0.763594   -0.000010
 ---------------------------------------------------------------------
 Rotational constants (GHZ):         126.1838998          25.0915389          24.1651959
 Standard basis: 6-31G(d) (6D, 7F)
 There are    38 symmetry adapted cartesian basis functions of A   symmetry.
 There are    38 symmetry adapted basis functions of A   symmetry.
    38 basis functions,    72 primitive gaussians,    38 cartesian basis functions
     9 alpha electrons        9 beta electrons
       nuclear repulsion energy        40.3673915480 Hartrees.
 NAtoms=    6 NActive=    6 NUniq=    6 SFac= 1.00D+00 NAtFMM=   60 NAOKFM=F Big=F
 Integral buffers will be    131072 words long.
 Raffenetti 1 integral format.
 Two-electron integral symmetry is turned on.
 One-electron integrals computed using PRISM.
 NBasis=    38 RedAO= T EigKep=  9.48D-03  NBF=    38
 NBsUse=    38 1.00D-06 EigRej= -1.00D+00 NBFU=    38
 ExpMin= 1.61D-01 ExpMax= 5.48D+03 ExpMxC= 8.25D+02 IAcc=3 IRadAn=         5 AccDes= 0.00D+00
 Harris functional with IExCor=  205 and IRadAn=       5 diagonalized for initial guess.
 HarFok:  IExCor=  205 AccDes= 0.00D+00 IRadAn=         5 IDoV= 1 UseB2=F ITyADJ=14
 ICtDFT=  3500011 ScaDFX=  1.000000  1.000000  1.000000  1.000000
 FoFCou: FMM=F IPFlag=           0 FMFlag=      100000 FMFlg1=           0
         NFxFlg=           0 DoJE=T BraDBF=F KetDBF=T FulRan=T
         wScrn=  0.000000 ICntrl=       500 IOpCl=  0 I1Cent=   200000004 NGrid=           0
         NMat0=    1 NMatS0=      1 NMatT0=    0 NMatD0=    1 NMtDS0=    0 NMtDT0=    0
 Petite list used in FoFCou.
 Keep R1 ints in memory in canonical form, NReq=2757623.
 Requested convergence on RMS density matrix=1.00D-08 within 128 cycles.
 Requested convergence on MAX density matrix=1.00D-06.
 Requested convergence on             energy=1.00D-06.
 No special actions if energy rises.
 SCF Done:  E(RHF) =  -115.033763850     A.U. after   11 cycles
            NFock= 11  Conv=0.46D-08     -V/T= 2.0024

 **********************************************************************

            Population analysis using the SCF Density.

 **********************************************************************

 Orbital symmetries:
       Occupied  (A) (A) (A) (A) (A) (A) (A) (A) (A)
       Virtual   (A) (A) (A) (A) (A) (A) (A) (A) (A) (A) (A) (A)
                 (A) (A) (A) (A) (A) (A) (A) (A) (A) (A) (A) (A)
                 (A) (A) (A) (A) (A)
 The electronic state is 1-A.
 Alpha  occ. eigenvalues --  -20.55703 -11.27096  -1.34945  -0.92055  -0.68205
 Alpha  occ. eigenvalues --   -0.62034  -0.59102  -0.49664  -0.44271
 Alpha virt. eigenvalues --    0.22086   0.27860   0.32238   0.32568   0.37883
 Alpha virt. eigenvalues --    0.76858   0.77363   0.79095   1.04439   1.12846
 Alpha virt. eigenvalues --    1.13836   1.17501   1.20405   1.25032   1.27353
 Alpha virt. eigenvalues --    1.41092   1.71816   1.76795   1.86810   2.03995
 Alpha virt. eigenvalues --    2.39472   2.42558   2.50294   2.69218   2.71627
 Alpha virt. eigenvalues --    2.77872   3.15772   4.12049   4.63832
          Condensed to atoms (all electrons):
               1          2          3          4          5          6
     1  C    4.797147   0.211388   0.393182   0.393182   0.398645  -0.027342
     2  O    0.211388   8.370804  -0.040156  -0.040155  -0.032656   0.260078
     3  H    0.393182  -0.040156   0.581280  -0.040849  -0.032246  -0.004427
     4  H    0.393182  -0.040155  -0.040849   0.581277  -0.032246  -0.004427
     5  H    0.398645  -0.032656  -0.032246  -0.032246   0.518109   0.005131
     6  H   -0.027342   0.260078  -0.004427  -0.004427   0.005131   0.337180
 Mulliken charges:
               1
     1  C   -0.166201
     2  O   -0.729303
     3  H    0.143215
     4  H    0.143219
     5  H    0.175263
     6  H    0.433807
 Sum of Mulliken charges =   0.00000
 Mulliken charges with hydrogens summed into heavy atoms:
               1
     1  C    0.295496
     2  O   -0.295496
 Electronic spatial extent (au):  <R**2>=             83.5635
 Charge=              0.0000 electrons
 Dipole moment (field-independent basis, Debye):
    X=             -0.9947    Y=             -1.6799    Z=             -0.0000  Tot=              1.9523
 Quadrupole moment (field-independent basis, Debye-Ang):
   XX=            -12.7622   YY=            -11.9942   ZZ=            -13.6379
   XY=             -2.4278   XZ=             -0.0000   YZ=              0.0000
 Traceless Quadrupole moment (field-independent basis, Debye-Ang):
   XX=              0.0359   YY=              0.8039   ZZ=             -0.8398
   XY=             -2.4278   XZ=             -0.0000   YZ=              0.0000
 Octapole moment (field-independent basis, Debye-Ang**2):
  XXX=              4.1453  YYY=             -0.7932  ZZZ=             -0.0001  XYY=              1.8708
  XXY=             -2.2775  XXZ=             -0.0001  XZZ=              0.5448  YZZ=             -0.6256
  YYZ=             -0.0000  XYZ=              0.0000
 Hexadecapole moment (field-independent basis, Debye-Ang**3):
 XXXX=            -59.1631 YYYY=            -19.2111 ZZZZ=            -18.9391 XXXY=             -4.0932
 XXXZ=              0.0000 YYYX=             -3.0129 YYYZ=              0.0000 ZZZX=              0.0000
 ZZZY=              0.0000 XXYY=            -11.8393 XXZZ=            -13.7281 YYZZ=             -6.4770
 XXYZ=              0.0000 YYXZ=             -0.0000 ZZXY=              0.0410
 N-N= 4.036739154805D+01 E-N=-3.516975290822D+02  KE= 1.147567054282D+02
 Calling FoFJK, ICntrl=      2127 FMM=F ISym2X=0 I1Cent= 0 IOpClX= 0 NMat=1 NMatS=1 NMatT=0.
 ***** Axes restored to original set *****
 -------------------------------------------------------------------
 Center     Atomic                   Forces (Hartrees/Bohr)
 Number     Number              X              Y              Z
 -------------------------------------------------------------------
      1        6           0.009622154    0.003346228   -0.000429652
      2        8          -0.001639002    0.022022409   -0.002775978
      3        1          -0.003818399   -0.002589882    0.005626419
      4        1          -0.003819799   -0.003900880   -0.004801111
      5        1           0.005376945    0.007640849   -0.000963544
      6        1          -0.005721899   -0.026518724    0.003343866
 -------------------------------------------------------------------
 Cartesian Forces:  Max     0.026518724 RMS     0.009251234

 GradGradGradGradGradGradGradGradGradGradGradGradGradGradGradGradGradGrad
 Berny optimization.
 FormGI is forming the generalized inverse of G from B-inverse, IUseBI=4.
 Internal  Forces:  Max     0.027211178 RMS     0.008846522
 Search for a local minimum.
 Step number   1 out of a maximum of   25
 All quantities printed in internal units (Hartrees-Bohrs-Radians)
 Mixed Optimization -- RFO/linear search
 Second derivative matrix not updated -- first step.
 The second derivative matrix:
                          R1        R2        R3        R4        R5
           R1           0.43108
           R2           0.00000   0.34495
           R3           0.00000   0.00000   0.34497
           R4           0.00000   0.00000   0.00000   0.34522
           R5           0.00000   0.00000   0.00000   0.00000   0.52900
           A1           0.00000   0.00000   0.00000   0.00000   0.00000
           A2           0.00000   0.00000   0.00000   0.00000   0.00000
           A3           0.00000   0.00000   0.00000   0.00000   0.00000
           A4           0.00000   0.00000   0.00000   0.00000   0.00000
           A5           0.00000   0.00000   0.00000   0.00000   0.00000
           A6           0.00000   0.00000   0.00000   0.00000   0.00000
           A7           0.00000   0.00000   0.00000   0.00000   0.00000
           D1           0.00000   0.00000   0.00000   0.00000   0.00000
           D2           0.00000   0.00000   0.00000   0.00000   0.00000
           D3           0.00000   0.00000   0.00000   0.00000   0.00000
                          A1        A2        A3        A4        A5
           A1           0.16000
           A2           0.00000   0.16000
           A3           0.00000   0.00000   0.16000
           A4           0.00000   0.00000   0.00000   0.16000
           A5           0.00000   0.00000   0.00000   0.00000   0.16000
           A6           0.00000   0.00000   0.00000   0.00000   0.00000
           A7           0.00000   0.00000   0.00000   0.00000   0.00000
           D1           0.00000   0.00000   0.00000   0.00000   0.00000
           D2           0.00000   0.00000   0.00000   0.00000   0.00000
           D3           0.00000   0.00000   0.00000   0.00000   0.00000
                          A6        A7        D1        D2        D3
           A6           0.16000
           A7           0.00000   0.16000
           D1           0.00000   0.00000   0.01484
           D2           0.00000   0.00000   0.00000   0.01484
           D3           0.00000   0.00000   0.00000   0.00000   0.01484
 ITU=  0
     Eigenvalues ---    0.01484   0.10393   0.10484   0.16000   0.16000
     Eigenvalues ---    0.16000   0.16000   0.34495   0.34497   0.34522
     Eigenvalues ---    0.43108   0.52900
 RFO step:  Lambda=-3.52577685D-03 EMin= 1.48356629D-02
 Linear search not attempted -- first point.
 Iteration  1 RMS(Cart)=  0.04586849 RMS(Int)=  0.00150943
 Iteration  2 RMS(Cart)=  0.00146433 RMS(Int)=  0.00081885
 Iteration  3 RMS(Cart)=  0.00000150 RMS(Int)=  0.00081885
 Iteration  4 RMS(Cart)=  0.00000000 RMS(Int)=  0.00081885
 Variable       Old X    -DE/DX   Delta X   Delta X   Delta X     New X
                                 (Linear)    (Quad)   (Total)
    R1        2.67536  -0.00733   0.00000  -0.01686  -0.01686   2.65850
    R2        2.06502  -0.00458   0.00000  -0.01314  -0.01314   2.05188
    R3        2.06500  -0.00457   0.00000  -0.01311  -0.01311   2.05188
    R4        2.06458  -0.00905   0.00000  -0.02595  -0.02595   2.03862
    R5        1.83747  -0.02721   0.00000  -0.05110  -0.05110   1.78637
    A1        1.91160   0.00824   0.00000   0.05288   0.05202   1.96362
    A2        1.91162   0.00824   0.00000   0.05286   0.05200   1.96362
    A3        1.90209  -0.00745   0.00000  -0.05043  -0.05008   1.85201
    A4        1.92113  -0.00454   0.00000  -0.01811  -0.01987   1.90126
    A5        1.90863  -0.00228   0.00000  -0.01890  -0.01856   1.89007
    A6        1.90863  -0.00228   0.00000  -0.01890  -0.01856   1.89007
    A7        1.86909   0.00476   0.00000   0.02912   0.02912   1.89821
    D1        1.05425   0.00235   0.00000   0.02186   0.02346   1.07772
    D2       -1.05424  -0.00235   0.00000  -0.02187  -0.02347  -1.07771
    D3       -3.14159   0.00000   0.00000   0.00000   0.00000  -3.14159
         Item               Value     Threshold  Converged?
 Maximum Force            0.027211     0.000450     NO 
 RMS     Force            0.008847     0.000300     NO 
 Maximum Displacement     0.089147     0.001800     NO 
 RMS     Displacement     0.045264     0.001200     NO 
 Predicted change in Energy=-1.799189D-03
 GradGradGradGradGradGradGradGradGradGradGradGradGradGradGradGradGradGrad

                          Input orientation:                          
 ---------------------------------------------------------------------
 Center     Atomic      Atomic             Coordinates (Angstroms)
 Number     Number       Type             X           Y           Z
 ---------------------------------------------------------------------
      1          6           0        1.100759    0.068063    0.024892
      2          8           0        2.507251    0.037943    0.028690
      3          1           0        0.695454    0.437388   -0.912290
      4          1           0        0.695458    0.658483    0.841053
      5          1           0        0.779075   -0.953562    0.153718
      6          1           0        2.830504    0.919285   -0.082443
 ---------------------------------------------------------------------
                    Distance matrix (angstroms):
                    1          2          3          4          5
     1  C    0.000000
     2  O    1.406820   0.000000
     3  H    1.085810   2.080290   0.000000
     4  H    1.085810   2.080288   1.767227   0.000000
     5  H    1.078793   1.996324   1.754454   1.754455   0.000000
     6  H    1.930833   0.945308   2.340792   2.340786   2.787775
                    6
     6  H    0.000000
 Stoichiometry    CH4O
 Framework group  C1[X(CH4O)]
 Deg. of freedom    12
 Full point group                 C1      NOp   1
 Largest Abelian subgroup         C1      NOp   1
 Largest concise Abelian subgroup C1      NOp   1
                         Standard orientation:                         
 ---------------------------------------------------------------------
 Center     Atomic      Atomic             Coordinates (Angstroms)
 Number     Number       Type             X           Y           Z
 ---------------------------------------------------------------------
      1          6           0       -0.658702   -0.020313    0.000000
      2          8           0        0.741226    0.118764   -0.000000
      3          1           0       -1.025375   -0.533886    0.883616
      4          1           0       -1.025369   -0.533898   -0.883611
      5          1           0       -1.059084    0.981430   -0.000007
      6          1           0        1.132233   -0.741887    0.000002
 ---------------------------------------------------------------------
 Rotational constants (GHZ):         131.2521493          25.2399216          24.3839177
 Standard basis: 6-31G(d) (6D, 7F)
 There are    38 symmetry adapted cartesian basis functions of A   symmetry.
 There are    38 symmetry adapted basis functions of A   symmetry.
    38 basis functions,    72 primitive gaussians,    38 cartesian basis functions
     9 alpha electrons        9 beta electrons
       nuclear repulsion energy        40.7047359009 Hartrees.
 NAtoms=    6 NActive=    6 NUniq=    6 SFac= 1.00D+00 NAtFMM=   60 NAOKFM=F Big=F
 Integral buffers will be    131072 words long.
 Raffenetti 1 integral format.
 Two-electron integral symmetry is turned on.
 One-electron integrals computed using PRISM.
 NBasis=    38 RedAO= T EigKep=  9.39D-03  NBF=    38
 NBsUse=    38 1.00D-06 EigRej= -1.00D+00 NBFU=    38
 Initial guess from the checkpoint file:  "methanol.chk"
 B after Tr=     0.000000    0.000000    0.000000
         Rot=    0.999964    0.000008    0.000001    0.008434 Ang=   0.97 deg.
 ExpMin= 1.61D-01 ExpMax= 5.48D+03 ExpMxC= 8.25D+02 IAcc=3 IRadAn=         5 AccDes= 0.00D+00
 Harris functional with IExCor=  205 and IRadAn=       5 diagonalized for initial guess.
 HarFok:  IExCor=  205 AccDes= 0.00D+00 IRadAn=         5 IDoV= 1 UseB2=F ITyADJ=14
 ICtDFT=  3500011 ScaDFX=  1.000000  1.000000  1.000000  1.000000
 FoFCou: FMM=F IPFlag=           0 FMFlag=      100000 FMFlg1=           0
         NFxFlg=           0 DoJE=T BraDBF=F KetDBF=T FulRan=T
         wScrn=  0.000000 ICntrl=       500 IOpCl=  0 I1Cent=   200000004 NGrid=           0
         NMat0=    1 NMatS0=      1 NMatT0=    0 NMatD0=    1 NMtDS0=    0 NMtDT0=    0
 Petite list used in FoFCou.
 Keep R1 ints in memory in canonical form, NReq=2757575.
 Requested convergence on RMS density matrix=1.00D-08 within 128 cycles.
 Requested convergence on MAX density matrix=1.00D-06.
 Requested convergence on             energy=1.00D-06.
 No special actions if energy rises.
 SCF Done:  E(RHF) =  -115.035296172     A.U. after   10 cycles
            NFock= 10  Conv=0.33D-08     -V/T= 2.0015
 Calling FoFJK, ICntrl=      2127 FMM=F ISym2X=0 I1Cent= 0 IOpClX= 0 NMat=1 NMatS=1 NMatT=0.
 ***** Axes restored to original set *****
 -------------------------------------------------------------------
 Center     Atomic                   Forces (Hartrees/Bohr)
 Number     Number              X              Y              Z
 -------------------------------------------------------------------
      1        6           0.005065948   -0.004676677    0.000590089
      2        8          -0.006628328    0.002637809   -0.000332893
      3        1           0.000934130    0.001059484   -0.000892172
      4        1           0.000933686    0.001247508    0.000601070
      5        1          -0.002167063   -0.001259243    0.000158914
      6        1           0.001861627    0.000991119   -0.000125006
 -------------------------------------------------------------------
 Cartesian Forces:  Max     0.006628328 RMS     0.002530240

 GradGradGradGradGradGradGradGradGradGradGradGradGradGradGradGradGradGrad
 Berny optimization.
 Using GEDIIS/GDIIS optimizer.
 FormGI is forming the generalized inverse of G from B-inverse, IUseBI=4.
 Internal  Forces:  Max     0.004844521 RMS     0.002093445
 Search for a local minimum.
 Step number   2 out of a maximum of   25
 All quantities printed in internal units (Hartrees-Bohrs-Radians)
 Mixed Optimization -- RFO/linear search
 Update second derivatives using D2CorX and points    1    2
 DE= -1.53D-03 DEPred=-1.80D-03 R= 8.52D-01
 TightC=F SS=  1.41D+00  RLast= 1.22D-01 DXNew= 5.0454D-01 3.6575D-01
 Trust test= 8.52D-01 RLast= 1.22D-01 DXMaxT set to 3.66D-01
 The second derivative matrix:
                          R1        R2        R3        R4        R5
           R1           0.41729
           R2          -0.00625   0.34613
           R3          -0.00624   0.00117   0.34614
           R4          -0.01216   0.00274   0.00274   0.35148
           R5          -0.03924   0.00277   0.00277   0.00771   0.52277
           A1           0.01107  -0.00305  -0.00305  -0.00685  -0.00989
           A2           0.01106  -0.00305  -0.00305  -0.00684  -0.00989
           A3          -0.01000   0.00435   0.00434   0.00946   0.01709
           A4          -0.00360   0.00251   0.00251   0.00535   0.01100
           A5          -0.00468  -0.00049  -0.00049  -0.00077  -0.00495
           A6          -0.00468  -0.00049  -0.00049  -0.00077  -0.00495
           A7           0.00844   0.00314   0.00313   0.00602   0.02047
           D1          -0.00160  -0.00457  -0.00457  -0.00933  -0.02428
           D2           0.00160   0.00457   0.00457   0.00933   0.02429
           D3          -0.00000  -0.00000  -0.00000  -0.00000  -0.00000
                          A1        A2        A3        A4        A5
           A1           0.16736
           A2           0.00736   0.16735
           A3          -0.00985  -0.00985   0.17242
           A4          -0.00545  -0.00545   0.00657   0.16334
           A5           0.00047   0.00047   0.00022   0.00046   0.15908
           A6           0.00047   0.00047   0.00022   0.00046  -0.00092
           A7          -0.00538  -0.00538   0.00459   0.00149   0.00258
           D1           0.00903   0.00902  -0.00969  -0.00440  -0.00211
           D2          -0.00903  -0.00903   0.00969   0.00440   0.00211
           D3           0.00000   0.00000  -0.00000  -0.00000  -0.00000
                          A6        A7        D1        D2        D3
           A6           0.15908
           A7           0.00258   0.15496
           D1          -0.00211   0.00164   0.01835
           D2           0.00211  -0.00164  -0.00351   0.01835
           D3          -0.00000   0.00000   0.00000  -0.00000   0.01484
 ITU=  1  0
 Use linear search instead of GDIIS.
     Eigenvalues ---    0.01484   0.10491   0.10598   0.15062   0.16000
     Eigenvalues ---    0.16000   0.18981   0.34496   0.34497   0.35255
     Eigenvalues ---    0.40808   0.54168
 RFO step:  Lambda=-1.89696248D-04 EMin= 1.48356629D-02
 Quartic linear search produced a step of -0.12167.
 Iteration  1 RMS(Cart)=  0.00929626 RMS(Int)=  0.00007000
 Iteration  2 RMS(Cart)=  0.00006570 RMS(Int)=  0.00004368
 Iteration  3 RMS(Cart)=  0.00000000 RMS(Int)=  0.00004368
 Variable       Old X    -DE/DX   Delta X   Delta X   Delta X     New X
                                 (Linear)    (Quad)   (Total)
    R1        2.65850  -0.00484   0.00205  -0.01293  -0.01087   2.64763
    R2        2.05188   0.00078   0.00160  -0.00042   0.00118   2.05306
    R3        2.05188   0.00078   0.00160  -0.00041   0.00118   2.05307
    R4        2.03862   0.00186   0.00316  -0.00003   0.00312   2.04175
    R5        1.78637   0.00158   0.00622  -0.00667  -0.00045   1.78592
    A1        1.96362  -0.00227  -0.00633  -0.00430  -0.01060   1.95302
    A2        1.96362  -0.00227  -0.00633  -0.00430  -0.01060   1.95302
    A3        1.85201   0.00374   0.00609   0.01398   0.02004   1.87205
    A4        1.90126   0.00048   0.00242  -0.00630  -0.00380   1.89747
    A5        1.89007   0.00028   0.00226   0.00093   0.00315   1.89322
    A6        1.89007   0.00028   0.00226   0.00092   0.00315   1.89322
    A7        1.89821   0.00251  -0.00354   0.01924   0.01570   1.91391
    D1        1.07772  -0.00143  -0.00285  -0.00750  -0.01045   1.06727
    D2       -1.07771   0.00143   0.00286   0.00750   0.01045  -1.06726
    D3       -3.14159  -0.00000  -0.00000  -0.00000  -0.00000  -3.14159
         Item               Value     Threshold  Converged?
 Maximum Force            0.004845     0.000450     NO 
 RMS     Force            0.002093     0.000300     NO 
 Maximum Displacement     0.019666     0.001800     NO 
 RMS     Displacement     0.009289     0.001200     NO 
 Predicted change in Energy=-1.271311D-04
 GradGradGradGradGradGradGradGradGradGradGradGradGradGradGradGradGradGrad

                          Input orientation:                          
 ---------------------------------------------------------------------
 Center     Atomic      Atomic             Coordinates (Angstroms)
 Number     Number       Type             X           Y           Z
 ---------------------------------------------------------------------
      1          6           0        1.101607    0.061145    0.025765
      2          8           0        2.502571    0.044473    0.027866
      3          1           0        0.702245    0.438047   -0.911675
      4          1           0        0.702247    0.658968    0.840295
      5          1           0        0.768668   -0.958650    0.154360
      6          1           0        2.831162    0.923617   -0.082990
 ---------------------------------------------------------------------
                    Distance matrix (angstroms):
                    1          2          3          4          5
     1  C    0.000000
     2  O    1.401065   0.000000
     3  H    1.086435   2.068529   0.000000
     4  H    1.086435   2.068530   1.765845   0.000000
     5  H    1.080447   2.007156   1.758296   1.758297   0.000000
     6  H    1.935729   0.945068   2.335548   2.335546   2.802346
                    6
     6  H    0.000000
 Stoichiometry    CH4O
 Framework group  C1[X(CH4O)]
 Deg. of freedom    12
 Full point group                 C1      NOp   1
 Largest Abelian subgroup         C1      NOp   1
 Largest concise Abelian subgroup C1      NOp   1
                         Standard orientation:                         
 ---------------------------------------------------------------------
 Center     Atomic      Atomic             Coordinates (Angstroms)
 Number     Number       Type             X           Y           Z
 ---------------------------------------------------------------------
      1          6           0       -0.656690   -0.019687    0.000000
      2          8           0        0.737334    0.120602   -0.000000
      3          1           0       -1.011174   -0.544211    0.882924
      4          1           0       -1.011174   -0.544220   -0.882920
      5          1           0       -1.078979    0.974816   -0.000004
      6          1           0        1.142791   -0.733073    0.000001
 ---------------------------------------------------------------------
 Rotational constants (GHZ):         131.2849300          25.3852126          24.5147819
 Standard basis: 6-31G(d) (6D, 7F)
 There are    38 symmetry adapted cartesian basis functions of A   symmetry.
 There are    38 symmetry adapted basis functions of A   symmetry.
    38 basis functions,    72 primitive gaussians,    38 cartesian basis functions
     9 alpha electrons        9 beta electrons
       nuclear repulsion energy        40.7786371834 Hartrees.
 NAtoms=    6 NActive=    6 NUniq=    6 SFac= 1.00D+00 NAtFMM=   60 NAOKFM=F Big=F
 Integral buffers will be    131072 words long.
 Raffenetti 1 integral format.
 Two-electron integral symmetry is turned on.
 One-electron integrals computed using PRISM.
 NBasis=    38 RedAO= T EigKep=  9.31D-03  NBF=    38
 NBsUse=    38 1.00D-06 EigRej= -1.00D+00 NBFU=    38
 Initial guess from the checkpoint file:  "methanol.chk"
 B after Tr=    -0.000000    0.000000   -0.000000
         Rot=    0.999994   -0.000001   -0.000000   -0.003401 Ang=  -0.39 deg.
 Keep R1 ints in memory in canonical form, NReq=2757602.
 Requested convergence on RMS density matrix=1.00D-08 within 128 cycles.
 Requested convergence on MAX density matrix=1.00D-06.
 Requested convergence on             energy=1.00D-06.
 No special actions if energy rises.
 SCF Done:  E(RHF) =  -115.035410216     A.U. after    9 cycles
            NFock=  9  Conv=0.56D-08     -V/T= 2.0015
 Calling FoFJK, ICntrl=      2127 FMM=F ISym2X=0 I1Cent= 0 IOpClX= 0 NMat=1 NMatS=1 NMatT=0.
 ***** Axes restored to original set *****
 -------------------------------------------------------------------
 Center     Atomic                   Forces (Hartrees/Bohr)
 Number     Number              X              Y              Z
 -------------------------------------------------------------------
      1        6           0.001949958    0.000808712   -0.000101626
      2        8          -0.001101657   -0.002153743    0.000271594
      3        1          -0.000469846    0.000102130   -0.000519634
      4        1          -0.000469699    0.000227616    0.000477671
      5        1           0.000112294   -0.000397976    0.000050220
      6        1          -0.000021050    0.001413260   -0.000178224
 -------------------------------------------------------------------
 Cartesian Forces:  Max     0.002153743 RMS     0.000869148

 GradGradGradGradGradGradGradGradGradGradGradGradGradGradGradGradGradGrad
 Berny optimization.
 Using GEDIIS/GDIIS optimizer.
 FormGI is forming the generalized inverse of G from B-inverse, IUseBI=4.
 Internal  Forces:  Max     0.001328263 RMS     0.000609824
 Search for a local minimum.
 Step number   3 out of a maximum of   25
 All quantities printed in internal units (Hartrees-Bohrs-Radians)
 Mixed Optimization -- En-DIIS/RFO-DIIS
 Update second derivatives using D2CorX and points    1    2    3
 DE= -1.14D-04 DEPred=-1.27D-04 R= 8.97D-01
 TightC=F SS=  1.41D+00  RLast= 3.54D-02 DXNew= 6.1512D-01 1.0633D-01
 Trust test= 8.97D-01 RLast= 3.54D-02 DXMaxT set to 3.66D-01
 The second derivative matrix:
                          R1        R2        R3        R4        R5
           R1           0.36134
           R2           0.00727   0.34561
           R3           0.00728   0.00065   0.34562
           R4           0.00082  -0.00000  -0.00000   0.34847
           R5          -0.02212   0.00549   0.00549   0.00466   0.53458
           A1           0.00258   0.00204   0.00204  -0.00435   0.00042
           A2           0.00258   0.00204   0.00204  -0.00435   0.00042
           A3           0.00992  -0.00527  -0.00527   0.00403  -0.00116
           A4          -0.02110   0.00339   0.00339   0.00887   0.00792
           A5           0.00290  -0.00152  -0.00152  -0.00242  -0.00528
           A6           0.00290  -0.00153  -0.00152  -0.00242  -0.00529
           A7           0.01343  -0.00549  -0.00549   0.00372   0.00031
           D1           0.01361  -0.00267  -0.00267  -0.01198  -0.01490
           D2          -0.01361   0.00267   0.00267   0.01198   0.01490
           D3          -0.00000  -0.00000  -0.00000  -0.00000  -0.00000
                          A1        A2        A3        A4        A5
           A1           0.16930
           A2           0.00930   0.16930
           A3          -0.01197  -0.01197   0.17351
           A4          -0.01171  -0.01171   0.01853   0.16189
           A5           0.00251   0.00251  -0.00388   0.00186   0.15828
           A6           0.00251   0.00251  -0.00388   0.00186  -0.00172
           A7          -0.01273  -0.01273   0.01566   0.01202  -0.00025
           D1           0.01739   0.01738  -0.02470  -0.00636  -0.00254
           D2          -0.01739  -0.01738   0.02470   0.00636   0.00254
           D3           0.00000   0.00000  -0.00000  -0.00000  -0.00000
                          A6        A7        D1        D2        D3
           A6           0.15828
           A7          -0.00025   0.17448
           D1          -0.00254  -0.01469   0.02544
           D2           0.00254   0.01469  -0.01060   0.02544
           D3          -0.00000   0.00000   0.00000  -0.00000   0.01484
 ITU=  1  1  0
 Use linear search instead of GDIIS.
     Eigenvalues ---    0.01484   0.10508   0.10861   0.15544   0.16000
     Eigenvalues ---    0.16063   0.23085   0.34084   0.34496   0.35013
     Eigenvalues ---    0.36618   0.53784
 RFO step:  Lambda=-1.41871899D-05 EMin= 1.48356629D-02
 Quartic linear search produced a step of -0.08799.
 Iteration  1 RMS(Cart)=  0.00179653 RMS(Int)=  0.00000439
 Iteration  2 RMS(Cart)=  0.00000239 RMS(Int)=  0.00000390
 Iteration  3 RMS(Cart)=  0.00000000 RMS(Int)=  0.00000390
 Variable       Old X    -DE/DX   Delta X   Delta X   Delta X     New X
                                 (Linear)    (Quad)   (Total)
    R1        2.64763  -0.00111   0.00096  -0.00386  -0.00290   2.64473
    R2        2.05306   0.00066  -0.00010   0.00191   0.00181   2.05487
    R3        2.05307   0.00066  -0.00010   0.00191   0.00181   2.05487
    R4        2.04175   0.00035  -0.00027   0.00144   0.00116   2.04291
    R5        1.78592   0.00133   0.00004   0.00233   0.00237   1.78829
    A1        1.95302   0.00040   0.00093   0.00075   0.00169   1.95471
    A2        1.95302   0.00040   0.00093   0.00075   0.00169   1.95471
    A3        1.87205  -0.00055  -0.00176  -0.00046  -0.00222   1.86983
    A4        1.89747  -0.00012   0.00033  -0.00032   0.00003   1.89749
    A5        1.89322  -0.00008  -0.00028  -0.00040  -0.00067   1.89255
    A6        1.89322  -0.00008  -0.00028  -0.00040  -0.00067   1.89255
    A7        1.91391  -0.00092  -0.00138  -0.00292  -0.00430   1.90961
    D1        1.06727   0.00022   0.00092   0.00034   0.00125   1.06852
    D2       -1.06726  -0.00022  -0.00092  -0.00034  -0.00125  -1.06852
    D3       -3.14159   0.00000   0.00000  -0.00000  -0.00000  -3.14159
         Item               Value     Threshold  Converged?
 Maximum Force            0.001328     0.000450     NO 
 RMS     Force            0.000610     0.000300     NO 
 Maximum Displacement     0.003942     0.001800     NO 
 RMS     Displacement     0.001798     0.001200     NO 
 Predicted change in Energy=-8.175927D-06
 GradGradGradGradGradGradGradGradGradGradGradGradGradGradGradGradGradGrad

                          Input orientation:                          
 ---------------------------------------------------------------------
 Center     Atomic      Atomic             Coordinates (Angstroms)
 Number     Number       Type             X           Y           Z
 ---------------------------------------------------------------------
      1          6           0        1.102766    0.061888    0.025671
      2          8           0        2.502160    0.042566    0.028107
      3          1           0        0.702277    0.438482   -0.912523
      4          1           0        0.702278    0.659599    0.841008
      5          1           0        0.769944   -0.958585    0.154352
      6          1           0        2.829076    0.923649   -0.082995
 ---------------------------------------------------------------------
                    Distance matrix (angstroms):
                    1          2          3          4          5
     1  C    0.000000
     2  O    1.399529   0.000000
     3  H    1.087393   2.069085   0.000000
     4  H    1.087393   2.069085   1.767418   0.000000
     5  H    1.081062   2.004698   1.759146   1.759146   0.000000
     6  H    1.932508   0.946322   2.333834   2.333832   2.799850
                    6
     6  H    0.000000
 Stoichiometry    CH4O
 Framework group  C1[X(CH4O)]
 Deg. of freedom    12
 Full point group                 C1      NOp   1
 Largest Abelian subgroup         C1      NOp   1
 Largest concise Abelian subgroup C1      NOp   1
                         Standard orientation:                         
 ---------------------------------------------------------------------
 Center     Atomic      Atomic             Coordinates (Angstroms)
 Number     Number       Type             X           Y           Z
 ---------------------------------------------------------------------
      1          6           0       -0.655619   -0.019721    0.000000
      2          8           0        0.736856    0.120622    0.000000
      3          1           0       -1.012174   -0.543503    0.883710
      4          1           0       -1.012174   -0.543507   -0.883708
      5          1           0       -1.076086    0.976222   -0.000002
      6          1           0        1.139298   -0.735863   -0.000000
 ---------------------------------------------------------------------
 Rotational constants (GHZ):         131.0065816          25.4309749          24.5543833
 Standard basis: 6-31G(d) (6D, 7F)
 There are    38 symmetry adapted cartesian basis functions of A   symmetry.
 There are    38 symmetry adapted basis functions of A   symmetry.
    38 basis functions,    72 primitive gaussians,    38 cartesian basis functions
     9 alpha electrons        9 beta electrons
       nuclear repulsion energy        40.7899393696 Hartrees.
 NAtoms=    6 NActive=    6 NUniq=    6 SFac= 1.00D+00 NAtFMM=   60 NAOKFM=F Big=F
 Integral buffers will be    131072 words long.
 Raffenetti 1 integral format.
 Two-electron integral symmetry is turned on.
 One-electron integrals computed using PRISM.
 NBasis=    38 RedAO= T EigKep=  9.30D-03  NBF=    38
 NBsUse=    38 1.00D-06 EigRej= -1.00D+00 NBFU=    38
 Initial guess from the checkpoint file:  "methanol.chk"
 B after Tr=    -0.000000   -0.000000   -0.000000
         Rot=    1.000000   -0.000001   -0.000000    0.000432 Ang=  -0.05 deg.
 Keep R1 ints in memory in canonical form, NReq=2757602.
 Requested convergence on RMS density matrix=1.00D-08 within 128 cycles.
 Requested convergence on MAX density matrix=1.00D-06.
 Requested convergence on             energy=1.00D-06.
 No special actions if energy rises.
 SCF Done:  E(RHF) =  -115.035417997     A.U. after    8 cycles
            NFock=  8  Conv=0.63D-08     -V/T= 2.0015
 Calling FoFJK, ICntrl=      2127 FMM=F ISym2X=0 I1Cent= 0 IOpClX= 0 NMat=1 NMatS=1 NMatT=0.
 ***** Axes restored to original set *****
 -------------------------------------------------------------------
 Center     Atomic                   Forces (Hartrees/Bohr)
 Number     Number              X              Y              Z
 -------------------------------------------------------------------
      1        6           0.000191621   -0.000054881    0.000006895
      2        8           0.000123358    0.000098602   -0.000012395
      3        1          -0.000127572   -0.000021208    0.000019608
      4        1          -0.000127540   -0.000025396   -0.000013714
      5        1          -0.000124503    0.000051250   -0.000006479
      6        1           0.000064637   -0.000048367    0.000006085
 -------------------------------------------------------------------
 Cartesian Forces:  Max     0.000191621 RMS     0.000082934

 GradGradGradGradGradGradGradGradGradGradGradGradGradGradGradGradGradGrad
 Berny optimization.
 Using GEDIIS/GDIIS optimizer.
 FormGI is forming the generalized inverse of G from B-inverse, IUseBI=4.
 Internal  Forces:  Max     0.000187272 RMS     0.000103281
 Search for a local minimum.
 Step number   4 out of a maximum of   25
 All quantities printed in internal units (Hartrees-Bohrs-Radians)
 Mixed Optimization -- En-DIIS/RFO-DIIS
 Swapping is turned off.
 Update second derivatives using D2CorX and points    1    2    3    4
 DE= -7.78D-06 DEPred=-8.18D-06 R= 9.52D-01
 TightC=F SS=  1.41D+00  RLast= 7.42D-03 DXNew= 6.1512D-01 2.2268D-02
 Trust test= 9.52D-01 RLast= 7.42D-03 DXMaxT set to 3.66D-01
 The second derivative matrix:
                          R1        R2        R3        R4        R5
           R1           0.38692
           R2           0.00490   0.34222
           R3           0.00491  -0.00274   0.34223
           R4          -0.00381  -0.00115  -0.00115   0.34836
           R5          -0.03645   0.00171   0.00171   0.00387   0.53047
           A1           0.01544  -0.00505  -0.00505  -0.00885  -0.01306
           A2           0.01544  -0.00505  -0.00505  -0.00885  -0.01305
           A3           0.02342  -0.00748  -0.00748   0.00250  -0.00516
           A4          -0.03077   0.00534   0.00534   0.00905   0.00734
           A5          -0.01340   0.00641   0.00640   0.00321   0.01185
           A6          -0.01340   0.00641   0.00640   0.00321   0.01184
           A7           0.03404  -0.00863  -0.00862   0.00067  -0.00797
           D1           0.00954   0.00091   0.00091  -0.00830  -0.00291
           D2          -0.00954  -0.00091  -0.00091   0.00830   0.00291
           D3          -0.00000   0.00000   0.00000  -0.00000   0.00000
                          A1        A2        A3        A4        A5
           A1           0.16585
           A2           0.00585   0.16584
           A3          -0.01029  -0.01029   0.17879
           A4          -0.00968  -0.00968   0.01659   0.15993
           A5           0.00441   0.00441  -0.00761   0.00176   0.15818
           A6           0.00441   0.00441  -0.00760   0.00176  -0.00182
           A7          -0.00697  -0.00697   0.02225   0.01064  -0.00936
           D1           0.01614   0.01614  -0.02596  -0.00469  -0.00147
           D2          -0.01614  -0.01614   0.02597   0.00469   0.00147
           D3           0.00000   0.00000  -0.00000  -0.00000  -0.00000
                          A6        A7        D1        D2        D3
           A6           0.15818
           A7          -0.00936   0.18585
           D1          -0.00147  -0.02035   0.02540
           D2           0.00147   0.02035  -0.01056   0.02540
           D3          -0.00000  -0.00000   0.00000  -0.00000   0.01484
 ITU=  1  1  1  0
     Eigenvalues ---    0.01484   0.10516   0.10837   0.14736   0.16000
     Eigenvalues ---    0.16056   0.23103   0.34281   0.34496   0.34996
     Eigenvalues ---    0.39024   0.54373
 En-DIIS/RFO-DIIS/Sim-DIIS IScMMF=       -3 using points:     4    3
 RFO step:  Lambda=-7.72362698D-07.
 DidBck=F Rises=F RFO-DIIS coefs:    0.99672    0.00328
 Iteration  1 RMS(Cart)=  0.00072340 RMS(Int)=  0.00000037
 Iteration  2 RMS(Cart)=  0.00000029 RMS(Int)=  0.00000020
 Variable       Old X    -DE/DX   Delta X   Delta X   Delta X     New X
                                 (Linear)    (Quad)   (Total)
    R1        2.64473   0.00019   0.00001   0.00018   0.00019   2.64492
    R2        2.05487   0.00002  -0.00001   0.00017   0.00017   2.05504
    R3        2.05487   0.00002  -0.00001   0.00017   0.00017   2.05504
    R4        2.04291  -0.00001  -0.00000   0.00005   0.00005   2.04296
    R5        1.78829  -0.00002  -0.00001   0.00008   0.00007   1.78836
    A1        1.95471   0.00013  -0.00001   0.00081   0.00081   1.95551
    A2        1.95471   0.00013  -0.00001   0.00081   0.00081   1.95551
    A3        1.86983   0.00013   0.00001   0.00074   0.00075   1.87058
    A4        1.89749  -0.00013  -0.00000  -0.00073  -0.00073   1.89676
    A5        1.89255  -0.00014   0.00000  -0.00086  -0.00086   1.89169
    A6        1.89255  -0.00014   0.00000  -0.00086  -0.00086   1.89169
    A7        1.90961   0.00014   0.00001   0.00067   0.00068   1.91029
    D1        1.06852   0.00001  -0.00000   0.00012   0.00011   1.06863
    D2       -1.06852  -0.00001   0.00000  -0.00012  -0.00011  -1.06863
    D3       -3.14159  -0.00000   0.00000  -0.00000  -0.00000  -3.14159
         Item               Value     Threshold  Converged?
 Maximum Force            0.000187     0.000450     YES
 RMS     Force            0.000103     0.000300     YES
 Maximum Displacement     0.001696     0.001800     YES
 RMS     Displacement     0.000723     0.001200     YES
 Predicted change in Energy=-3.861839D-07
 Optimization completed.
    -- Stationary point found.
                           ----------------------------
                           !   Optimized Parameters   !
                           ! (Angstroms and Degrees)  !
 --------------------------                            --------------------------
 ! Name  Definition              Value          Derivative Info.                !
 --------------------------------------------------------------------------------
 ! R1    R(1,2)                  1.3995         -DE/DX =    0.0002              !
 ! R2    R(1,3)                  1.0874         -DE/DX =    0.0                 !
 ! R3    R(1,4)                  1.0874         -DE/DX =    0.0                 !
 ! R4    R(1,5)                  1.0811         -DE/DX =    0.0                 !
 ! R5    R(2,6)                  0.9463         -DE/DX =    0.0                 !
 ! A1    A(2,1,3)              111.9965         -DE/DX =    0.0001              !
 ! A2    A(2,1,4)              111.9965         -DE/DX =    0.0001              !
 ! A3    A(2,1,5)              107.1333         -DE/DX =    0.0001              !
 ! A4    A(3,1,4)              108.7184         -DE/DX =   -0.0001              !
 ! A5    A(3,1,5)              108.435          -DE/DX =   -0.0001              !
 ! A6    A(4,1,5)              108.435          -DE/DX =   -0.0001              !
 ! A7    A(1,2,6)              109.4125         -DE/DX =    0.0001              !
 ! D1    D(3,1,2,6)             61.2217         -DE/DX =    0.0                 !
 ! D2    D(4,1,2,6)            -61.2215         -DE/DX =    0.0                 !
 ! D3    D(5,1,2,6)           -179.9999         -DE/DX =    0.0                 !
 --------------------------------------------------------------------------------
 GradGradGradGradGradGradGradGradGradGradGradGradGradGradGradGradGradGrad

                          Input orientation:                          
 ---------------------------------------------------------------------
 Center     Atomic      Atomic             Coordinates (Angstroms)
 Number     Number       Type             X           Y           Z
 ---------------------------------------------------------------------
      1          6           0        1.102766    0.061888    0.025671
      2          8           0        2.502160    0.042566    0.028107
      3          1           0        0.702277    0.438482   -0.912523
      4          1           0        0.702278    0.659599    0.841008
      5          1           0        0.769944   -0.958585    0.154352
      6          1           0        2.829076    0.923649   -0.082995
 ---------------------------------------------------------------------
                    Distance matrix (angstroms):
                    1          2          3          4          5
     1  C    0.000000
     2  O    1.399529   0.000000
     3  H    1.087393   2.069085   0.000000
     4  H    1.087393   2.069085   1.767418   0.000000
     5  H    1.081062   2.004698   1.759146   1.759146   0.000000
     6  H    1.932508   0.946322   2.333834   2.333832   2.799850
                    6
     6  H    0.000000
 Stoichiometry    CH4O
 Framework group  C1[X(CH4O)]
 Deg. of freedom    12
 Full point group                 C1      NOp   1
 Largest Abelian subgroup         C1      NOp   1
 Largest concise Abelian subgroup C1      NOp   1
                         Standard orientation:                         
 ---------------------------------------------------------------------
 Center     Atomic      Atomic             Coordinates (Angstroms)
 Number     Number       Type             X           Y           Z
 ---------------------------------------------------------------------
      1          6           0       -0.655619   -0.019721    0.000000
      2          8           0        0.736856    0.120622    0.000000
      3          1           0       -1.012174   -0.543503    0.883710
      4          1           0       -1.012174   -0.543507   -0.883708
      5          1           0       -1.076086    0.976222   -0.000002
      6          1           0        1.139298   -0.735863   -0.000000
 ---------------------------------------------------------------------
 Rotational constants (GHZ):         131.0065816          25.4309749          24.5543833

 **********************************************************************

            Population analysis using the SCF Density.

 **********************************************************************

 Orbital symmetries:
       Occupied  (A) (A) (A) (A) (A) (A) (A) (A) (A)
       Virtual   (A) (A) (A) (A) (A) (A) (A) (A) (A) (A) (A) (A)
                 (A) (A) (A) (A) (A) (A) (A) (A) (A) (A) (A) (A)
                 (A) (A) (A) (A) (A)
 The electronic state is 1-A.
 Alpha  occ. eigenvalues --  -20.55533 -11.26672  -1.36032  -0.92679  -0.69363
 Alpha  occ. eigenvalues --   -0.62096  -0.59530  -0.49737  -0.44326
 Alpha virt. eigenvalues --    0.22680   0.28043   0.32377   0.33053   0.38753
 Alpha virt. eigenvalues --    0.76241   0.77450   0.79858   1.05532   1.13016
 Alpha virt. eigenvalues --    1.15171   1.18939   1.21799   1.25371   1.27032
 Alpha virt. eigenvalues --    1.40967   1.72501   1.77520   1.87116   2.03241
 Alpha virt. eigenvalues --    2.38829   2.45669   2.47848   2.70417   2.75547
 Alpha virt. eigenvalues --    2.82361   3.16753   4.13607   4.64220
          Condensed to atoms (all electrons):
               1          2          3          4          5          6
     1  C    4.784455   0.219195   0.393255   0.393255   0.402873  -0.026507
     2  O    0.219195   8.357649  -0.038728  -0.038728  -0.036985   0.263724
     3  H    0.393255  -0.038728   0.586894  -0.044237  -0.033693  -0.004029
     4  H    0.393255  -0.038728  -0.044237   0.586894  -0.033693  -0.004029
     5  H    0.402873  -0.036985  -0.033693  -0.033693   0.521622   0.005451
     6  H   -0.026507   0.263724  -0.004029  -0.004029   0.005451   0.328239
 Mulliken charges:
               1
     1  C   -0.166527
     2  O   -0.726128
     3  H    0.140538
     4  H    0.140538
     5  H    0.174426
     6  H    0.437152
 Sum of Mulliken charges =  -0.00000
 Mulliken charges with hydrogens summed into heavy atoms:
               1
     1  C    0.288976
     2  O   -0.288976
 Electronic spatial extent (au):  <R**2>=             82.7012
 Charge=             -0.0000 electrons
 Dipole moment (field-independent basis, Debye):
    X=             -0.8953    Y=             -1.6387    Z=             -0.0000  Tot=              1.8673
 Quadrupole moment (field-independent basis, Debye-Ang):
   XX=            -12.5779   YY=            -12.0492   ZZ=            -13.6312
   XY=             -2.3460   XZ=              0.0000   YZ=             -0.0000
 Traceless Quadrupole moment (field-independent basis, Debye-Ang):
   XX=              0.1748   YY=              0.7036   ZZ=             -0.8784
   XY=             -2.3460   XZ=              0.0000   YZ=             -0.0000
 Octapole moment (field-independent basis, Debye-Ang**2):
  XXX=              4.3959  YYY=             -0.7265  ZZZ=              0.0000  XYY=              1.8894
  XXY=             -2.4109  XXZ=             -0.0000  XZZ=              0.5871  YZZ=             -0.5728
  YYZ=             -0.0000  XYZ=              0.0000
 Hexadecapole moment (field-independent basis, Debye-Ang**3):
 XXXX=            -58.0063 YYYY=            -18.8646 ZZZZ=            -18.8081 XXXY=             -3.9561
 XXXZ=              0.0000 YYYX=             -2.9132 YYYZ=             -0.0000 ZZZX=             -0.0000
 ZZZY=             -0.0000 XXYY=            -11.7825 XXZZ=            -13.4945 YYZZ=             -6.4141
 XXYZ=             -0.0000 YYXZ=              0.0000 ZZXY=             -0.0011
 N-N= 4.078993936964D+01 E-N=-3.525938420485D+02  KE= 1.148624830821D+02

 Test job not archived.
 1\1\GINC-ASTERIX\FOpt\RHF\6-31G(d)\C1H4O1\MTMJEA001\25-Feb-2020\0\\#G2
 \\methanol\\0,1\C,1.1027658786,0.0618884239,0.0256713291\O,2.502159754
 6,0.0425658504,0.0281065332\H,0.7022766114,0.4384820558,-0.9125232851\
 H,0.7022779665,0.6595992924,0.8410084833\H,0.7699438201,-0.9585846499,
 0.1543515742\H,2.8290759687,0.9236490272,-0.0829946355\\Version=ES64L-
 G16RevC.01\State=1-A\HF=-115.035418\RMSD=6.274e-09\RMSF=8.293e-05\Dipo
 le=-0.4066363,0.6070602,-0.0765472\Quadrupole=-0.1674247,0.797462,-0.6
 300373,1.6710341,-0.2107113,-0.1829119\PG=C01 [X(C1H4O1)]\\@


 MANHOOD BEGINS BY TRYING TO SHAVE FACE,
 AND ENDS BY TRYING TO SAVE FACE.
 Job cpu time:       0 days  0 hours  0 minutes 43.3 seconds.
 Elapsed time:       0 days  0 hours  0 minutes  4.6 seconds.
 File lengths (MBytes):  RWF=      6 Int=      0 D2E=      0 Chk=      1 Scr=      1
 Normal termination of Gaussian 16 at Tue Feb 25 15:27:20 2020.
 Link1:  Proceeding to internal job step number  2.
 --------------------------------------------------------------
 #N Geom=AllCheck Guess=TCheck SCRF=Check Test HF/6-31G(d) Freq
 --------------------------------------------------------------
 1/10=4,29=7,30=1,38=1,40=1/1,3;
 2/12=2,40=1/2;
 3/5=1,6=6,7=1,11=9,14=-4,25=1,30=1,70=2,71=2,116=-2,140=1/1,2,3;
 4/5=101/1;
 5/5=2,38=6,98=1/2;
 8/6=4,10=90,11=11/1;
 10/13=10,15=4/2;
 11/6=3,8=1,9=11,15=111,16=1/1,2,10;
 10/6=1/2;
 6/7=2,8=2,9=2,10=2,28=1/1;
 7/8=1,10=1,25=1/1,2,3,16;
 1/10=4,30=1/3;
 99//99;
 Structure from the checkpoint file:  "methanol.chk"
 --------
 methanol
 --------
 Charge =  0 Multiplicity = 1
 Redundant internal coordinates found in file.  (old form).
 C,0,1.1027658786,0.0618884239,0.0256713291
 O,0,2.5021597546,0.0425658504,0.0281065332
 H,0,0.7022766114,0.4384820558,-0.9125232851
 H,0,0.7022779665,0.6595992924,0.8410084833
 H,0,0.7699438201,-0.9585846499,0.1543515742
 H,0,2.8290759687,0.9236490272,-0.0829946355
 Recover connectivity data from disk.

 GradGradGradGradGradGradGradGradGradGradGradGradGradGradGradGradGradGrad
 Berny optimization.
 Initialization pass.
                           ----------------------------
                           !    Initial Parameters    !
                           ! (Angstroms and Degrees)  !
 --------------------------                            --------------------------
 ! Name  Definition              Value          Derivative Info.                !
 --------------------------------------------------------------------------------
 ! R1    R(1,2)                  1.3995         calculate D2E/DX2 analytically  !
 ! R2    R(1,3)                  1.0874         calculate D2E/DX2 analytically  !
 ! R3    R(1,4)                  1.0874         calculate D2E/DX2 analytically  !
 ! R4    R(1,5)                  1.0811         calculate D2E/DX2 analytically  !
 ! R5    R(2,6)                  0.9463         calculate D2E/DX2 analytically  !
 ! A1    A(2,1,3)              111.9965         calculate D2E/DX2 analytically  !
 ! A2    A(2,1,4)              111.9965         calculate D2E/DX2 analytically  !
 ! A3    A(2,1,5)              107.1333         calculate D2E/DX2 analytically  !
 ! A4    A(3,1,4)              108.7184         calculate D2E/DX2 analytically  !
 ! A5    A(3,1,5)              108.435          calculate D2E/DX2 analytically  !
 ! A6    A(4,1,5)              108.435          calculate D2E/DX2 analytically  !
 ! A7    A(1,2,6)              109.4125         calculate D2E/DX2 analytically  !
 ! D1    D(3,1,2,6)             61.2217         calculate D2E/DX2 analytically  !
 ! D2    D(4,1,2,6)            -61.2215         calculate D2E/DX2 analytically  !
 ! D3    D(5,1,2,6)           -179.9999         calculate D2E/DX2 analytically  !
 --------------------------------------------------------------------------------
 Trust Radius=3.00D-01 FncErr=1.00D-07 GrdErr=1.00D-07 EigMax=2.50D+02 EigMin=1.00D-04
 Number of steps in this run=      2 maximum allowed number of steps=      2.
 GradGradGradGradGradGradGradGradGradGradGradGradGradGradGradGradGradGrad

                          Input orientation:                          
 ---------------------------------------------------------------------
 Center     Atomic      Atomic             Coordinates (Angstroms)
 Number     Number       Type             X           Y           Z
 ---------------------------------------------------------------------
      1          6           0        1.102766    0.061888    0.025671
      2          8           0        2.502160    0.042566    0.028107
      3          1           0        0.702277    0.438482   -0.912523
      4          1           0        0.702278    0.659599    0.841008
      5          1           0        0.769944   -0.958585    0.154352
      6          1           0        2.829076    0.923649   -0.082995
 ---------------------------------------------------------------------
                    Distance matrix (angstroms):
                    1          2          3          4          5
     1  C    0.000000
     2  O    1.399529   0.000000
     3  H    1.087393   2.069085   0.000000
     4  H    1.087393   2.069085   1.767418   0.000000
     5  H    1.081062   2.004698   1.759146   1.759146   0.000000
     6  H    1.932508   0.946322   2.333834   2.333832   2.799850
                    6
     6  H    0.000000
 Stoichiometry    CH4O
 Framework group  C1[X(CH4O)]
 Deg. of freedom    12
 Full point group                 C1      NOp   1
 Largest Abelian subgroup         C1      NOp   1
 Largest concise Abelian subgroup C1      NOp   1
                         Standard orientation:                         
 ---------------------------------------------------------------------
 Center     Atomic      Atomic             Coordinates (Angstroms)
 Number     Number       Type             X           Y           Z
 ---------------------------------------------------------------------
      1          6           0       -0.655619   -0.019721    0.000000
      2          8           0        0.736856    0.120622    0.000000
      3          1           0       -1.012174   -0.543503    0.883710
      4          1           0       -1.012174   -0.543507   -0.883708
      5          1           0       -1.076086    0.976222   -0.000002
      6          1           0        1.139298   -0.735863   -0.000000
 ---------------------------------------------------------------------
 Rotational constants (GHZ):         131.0065816          25.4309749          24.5543833
 Standard basis: 6-31G(d) (6D, 7F)
 There are    38 symmetry adapted cartesian basis functions of A   symmetry.
 There are    38 symmetry adapted basis functions of A   symmetry.
    38 basis functions,    72 primitive gaussians,    38 cartesian basis functions
     9 alpha electrons        9 beta electrons
       nuclear repulsion energy        40.7899393696 Hartrees.
 NAtoms=    6 NActive=    6 NUniq=    6 SFac= 1.00D+00 NAtFMM=   60 NAOKFM=F Big=F
 Integral buffers will be    131072 words long.
 Raffenetti 1 integral format.
 Two-electron integral symmetry is turned on.
 One-electron integrals computed using PRISM.
 NBasis=    38 RedAO= T EigKep=  9.30D-03  NBF=    38
 NBsUse=    38 1.00D-06 EigRej= -1.00D+00 NBFU=    38
 Initial guess from the checkpoint file:  "methanol.chk"
 B after Tr=     0.000000    0.000000   -0.000000
         Rot=    1.000000   -0.000000   -0.000000    0.000000 Ang=   0.00 deg.
 Keep R1 ints in memory in canonical form, NReq=2757602.
 Requested convergence on RMS density matrix=1.00D-08 within 128 cycles.
 Requested convergence on MAX density matrix=1.00D-06.
 Requested convergence on             energy=1.00D-06.
 No special actions if energy rises.
 SCF Done:  E(RHF) =  -115.035417997     A.U. after    1 cycles
            NFock=  1  Conv=0.89D-09     -V/T= 2.0015
 Range of M.O.s used for correlation:     1    38
 NBasis=    38 NAE=     9 NBE=     9 NFC=     0 NFV=     0
 NROrb=     38 NOA=     9 NOB=     9 NVA=    29 NVB=    29
          Differentiating once with respect to electric field.
                with respect to dipole field.
          Electric field/nuclear overlap derivatives assumed to be zero.
 Keep R1 ints in memory in canonical form, NReq=2758073.
          There are     3 degrees of freedom in the 1st order CPHF.  IDoFFX=0 NUNeed=     3.
      3 vectors produced by pass  0 Test12= 8.70D-15 3.33D-08 XBig12= 3.09D+00 7.69D-01.
 AX will form     3 AO Fock derivatives at one time.
      3 vectors produced by pass  1 Test12= 8.70D-15 3.33D-08 XBig12= 1.18D-01 1.11D-01.
      3 vectors produced by pass  2 Test12= 8.70D-15 3.33D-08 XBig12= 1.35D-02 4.09D-02.
      3 vectors produced by pass  3 Test12= 8.70D-15 3.33D-08 XBig12= 3.63D-04 6.87D-03.
      3 vectors produced by pass  4 Test12= 8.70D-15 3.33D-08 XBig12= 5.45D-06 8.46D-04.
      3 vectors produced by pass  5 Test12= 8.70D-15 3.33D-08 XBig12= 1.31D-07 1.55D-04.
      3 vectors produced by pass  6 Test12= 8.70D-15 3.33D-08 XBig12= 2.71D-09 1.69D-05.
      3 vectors produced by pass  7 Test12= 8.70D-15 3.33D-08 XBig12= 3.78D-11 1.87D-06.
      3 vectors produced by pass  8 Test12= 8.70D-15 3.33D-08 XBig12= 3.28D-13 1.76D-07.
 InvSVY:  IOpt=1 It=  1 EMax= 2.22D-16
 Solved reduced A of dimension    27 with     3 vectors.
 End of Minotr F.D. properties file   721 does not exist.
 End of Minotr F.D. properties file   722 does not exist.
 End of Minotr F.D. properties file   788 does not exist.
 Symmetrizing basis deriv contribution to polar:
 IMax=3 JMax=2 DiffMx= 0.00D+00
 G2DrvN: will do     7 centers at a time, making    1 passes.
 PxScal for G2LodP:  IOpCl= 0 ISclPx=1 IMOff=     1 NMtTot=     4 NTT=     741 ScalPx= 1.59D+00
 Calling FoFCou, ICntrl=  3107 FMM=F I1Cent=   0 AccDes= 0.00D+00.
 End of G2Drv F.D. properties file   721 does not exist.
 End of G2Drv F.D. properties file   722 does not exist.
 End of G2Drv F.D. properties file   788 does not exist.
          IDoAtm=111111
          Differentiating once with respect to electric field.
                with respect to dipole field.
          Differentiating once with respect to nuclear coordinates.
 Keep R1 ints in memory in canonical form, NReq=2758211.
          There are    21 degrees of freedom in the 1st order CPHF.  IDoFFX=5 NUNeed=    21.
 Will reuse    3 saved solutions.
     15 vectors produced by pass  0 Test12= 1.24D-15 4.76D-09 XBig12= 5.05D-02 8.22D-02.
 AX will form    15 AO Fock derivatives at one time.
     15 vectors produced by pass  1 Test12= 1.24D-15 4.76D-09 XBig12= 1.33D-03 1.08D-02.
     15 vectors produced by pass  2 Test12= 1.24D-15 4.76D-09 XBig12= 4.86D-05 2.00D-03.
     15 vectors produced by pass  3 Test12= 1.24D-15 4.76D-09 XBig12= 2.80D-07 1.28D-04.
     15 vectors produced by pass  4 Test12= 1.24D-15 4.76D-09 XBig12= 1.76D-09 1.01D-05.
     15 vectors produced by pass  5 Test12= 1.24D-15 4.76D-09 XBig12= 6.16D-12 6.20D-07.
      6 vectors produced by pass  6 Test12= 1.24D-15 4.76D-09 XBig12= 2.19D-14 3.68D-08.
 InvSVY:  IOpt=1 It=  1 EMax= 1.33D-15
 Solved reduced A of dimension    96 with    15 vectors.
 Isotropic polarizability for W=    0.000000       14.72 Bohr**3.
 End of Minotr F.D. properties file   721 does not exist.
 End of Minotr F.D. properties file   722 does not exist.
 End of Minotr F.D. properties file   788 does not exist.

 **********************************************************************

            Population analysis using the SCF Density.

 **********************************************************************

 Orbital symmetries:
       Occupied  (A) (A) (A) (A) (A) (A) (A) (A) (A)
       Virtual   (A) (A) (A) (A) (A) (A) (A) (A) (A) (A) (A) (A)
                 (A) (A) (A) (A) (A) (A) (A) (A) (A) (A) (A) (A)
                 (A) (A) (A) (A) (A)
 The electronic state is 1-A.
 Alpha  occ. eigenvalues --  -20.55533 -11.26672  -1.36032  -0.92679  -0.69363
 Alpha  occ. eigenvalues --   -0.62096  -0.59530  -0.49737  -0.44326
 Alpha virt. eigenvalues --    0.22680   0.28043   0.32377   0.33053   0.38753
 Alpha virt. eigenvalues --    0.76241   0.77450   0.79858   1.05532   1.13016
 Alpha virt. eigenvalues --    1.15171   1.18939   1.21799   1.25371   1.27032
 Alpha virt. eigenvalues --    1.40967   1.72501   1.77520   1.87116   2.03241
 Alpha virt. eigenvalues --    2.38829   2.45669   2.47848   2.70417   2.75547
 Alpha virt. eigenvalues --    2.82361   3.16753   4.13607   4.64220
          Condensed to atoms (all electrons):
               1          2          3          4          5          6
     1  C    4.784455   0.219195   0.393255   0.393255   0.402873  -0.026507
     2  O    0.219195   8.357649  -0.038728  -0.038728  -0.036985   0.263724
     3  H    0.393255  -0.038728   0.586894  -0.044237  -0.033693  -0.004029
     4  H    0.393255  -0.038728  -0.044237   0.586894  -0.033693  -0.004029
     5  H    0.402873  -0.036985  -0.033693  -0.033693   0.521622   0.005451
     6  H   -0.026507   0.263724  -0.004029  -0.004029   0.005451   0.328239
 Mulliken charges:
               1
     1  C   -0.166527
     2  O   -0.726128
     3  H    0.140538
     4  H    0.140538
     5  H    0.174426
     6  H    0.437152
 Sum of Mulliken charges =   0.00000
 Mulliken charges with hydrogens summed into heavy atoms:
               1
     1  C    0.288976
     2  O   -0.288976
 APT charges:
               1
     1  C    0.625738
     2  O   -0.692284
     3  H   -0.092156
     4  H   -0.092156
     5  H   -0.036150
     6  H    0.287008
 Sum of APT charges =   0.00000
 APT charges with hydrogens summed into heavy atoms:
               1
     1  C    0.405276
     2  O   -0.405276
 Electronic spatial extent (au):  <R**2>=             82.7012
 Charge=              0.0000 electrons
 Dipole moment (field-independent basis, Debye):
    X=             -0.8953    Y=             -1.6387    Z=             -0.0000  Tot=              1.8673
 Quadrupole moment (field-independent basis, Debye-Ang):
   XX=            -12.5779   YY=            -12.0492   ZZ=            -13.6312
   XY=             -2.3460   XZ=              0.0000   YZ=             -0.0000
 Traceless Quadrupole moment (field-independent basis, Debye-Ang):
   XX=              0.1748   YY=              0.7036   ZZ=             -0.8784
   XY=             -2.3460   XZ=              0.0000   YZ=             -0.0000
 Octapole moment (field-independent basis, Debye-Ang**2):
  XXX=              4.3959  YYY=             -0.7265  ZZZ=              0.0000  XYY=              1.8894
  XXY=             -2.4109  XXZ=             -0.0000  XZZ=              0.5871  YZZ=             -0.5728
  YYZ=             -0.0000  XYZ=              0.0000
 Hexadecapole moment (field-independent basis, Debye-Ang**3):
 XXXX=            -58.0063 YYYY=            -18.8646 ZZZZ=            -18.8081 XXXY=             -3.9561
 XXXZ=              0.0000 YYYX=             -2.9132 YYYZ=             -0.0000 ZZZX=             -0.0000
 ZZZY=             -0.0000 XXYY=            -11.7825 XXZZ=            -13.4945 YYZZ=             -6.4141
 XXYZ=             -0.0000 YYXZ=              0.0000 ZZXY=             -0.0011
 N-N= 4.078993936964D+01 E-N=-3.525938420904D+02  KE= 1.148624830997D+02
  Exact polarizability:      15.591      -0.961      15.071       0.000       0.000      13.490
 Approx polarizability:      12.128      -0.583      12.635       0.000       0.000      11.032
 Calling FoFJK, ICntrl=    100127 FMM=F ISym2X=0 I1Cent= 0 IOpClX= 0 NMat=1 NMatS=1 NMatT=0.
 Full mass-weighted force constant matrix:
 Low frequencies ---  -16.9243  -14.4548   -0.0006    0.0013    0.0016   23.6834
 Low frequencies ---  349.7009 1164.8126 1188.9003
 Diagonal vibrational polarizability:
        3.5392206       0.3328204      32.8120393
 Diagonal vibrational hyperpolarizability:
       -6.5433667      -5.0793346       0.0000290
 Harmonic frequencies (cm**-1), IR intensities (KM/Mole), Raman scattering
 activities (A**4/AMU), depolarization ratios for plane and unpolarized
 incident light, reduced masses (AMU), force constants (mDyne/A),
 and normal coordinates:
                      1                      2                      3
                      A                      A                      A
 Frequencies --    349.7004              1164.8126              1188.9003
 Red. masses --      1.0715                 1.1003                 5.7974
 Frc consts  --      0.0772                 0.8796                 4.8281
 IR Inten    --    147.6300                69.4156                77.6449
 Raman Activ --      2.9746                 1.6206                 8.9439
 Depolar (P) --      0.7500                 0.7251                 0.4106
 Depolar (U) --      0.8571                 0.8407                 0.5822
  Atom  AN      X      Y      Z        X      Y      Z        X      Y      Z
     1   6     0.00  -0.00   0.00     0.02  -0.07  -0.00     0.46   0.06   0.00
     2   8    -0.00   0.00  -0.07    -0.05  -0.00   0.00    -0.40  -0.04  -0.00
     3   1     0.06  -0.22  -0.10    -0.28   0.19   0.04     0.46  -0.02  -0.02
     4   1    -0.06   0.22  -0.10    -0.28   0.19  -0.04     0.46  -0.02   0.02
     5   1     0.00   0.00   0.29     0.56   0.16   0.00     0.23  -0.03  -0.00
     6   1    -0.00  -0.00   0.89     0.58   0.30  -0.00    -0.37  -0.01  -0.00
                      4                      5                      6
                      A                      A                      A
 Frequencies --   1289.9302              1508.2131              1637.3594
 Red. masses --      1.2655                 1.2952                 1.1572
 Frc consts  --      1.2407                 1.7358                 1.8279
 IR Inten    --      3.4920                44.2174                11.0718
 Raman Activ --      6.7178                 3.7310                 6.7980
 Depolar (P) --      0.7500                 0.7158                 0.7094
 Depolar (U) --      0.8571                 0.8343                 0.8300
  Atom  AN      X      Y      Z        X      Y      Z        X      Y      Z
     1   6     0.00   0.00  -0.14    -0.02   0.12  -0.00    -0.12   0.01  -0.00
     2   8    -0.00   0.00   0.06    -0.03  -0.09  -0.00    -0.01   0.00  -0.00
     3   1     0.64   0.11   0.18     0.19  -0.16  -0.09     0.47  -0.23   0.07
     4   1    -0.64  -0.11   0.18     0.19  -0.16   0.09     0.47  -0.23  -0.07
     5   1    -0.00   0.00   0.26    -0.46  -0.05  -0.00     0.58   0.29  -0.00
     6   1    -0.00  -0.00   0.01     0.74   0.29   0.00    -0.01   0.00  -0.00
                      7                      8                      9
                      A                      A                      A
 Frequencies --   1651.5576              1663.3222              3185.3451
 Red. masses --      1.0500                 1.0516                 1.0367
 Frc consts  --      1.6874                 1.7141                 6.1978
 IR Inten    --      1.0446                 3.1564                62.8513
 Raman Activ --     19.8620                18.3160               121.9882
 Depolar (P) --      0.7500                 0.7447                 0.0671
 Depolar (U) --      0.8571                 0.8536                 0.1257
  Atom  AN      X      Y      Z        X      Y      Z        X      Y      Z
     1   6     0.00  -0.00  -0.06    -0.03  -0.05   0.00     0.04   0.03  -0.00
     2   8     0.00   0.00  -0.01    -0.00  -0.01   0.00     0.00  -0.00   0.00
     3   1    -0.30   0.37   0.06     0.29   0.47   0.41    -0.21  -0.32   0.56
     4   1     0.30  -0.37   0.06     0.29   0.47  -0.41    -0.21  -0.32  -0.56
     5   1     0.00   0.00   0.73    -0.21  -0.11   0.00    -0.11   0.26  -0.00
     6   1    -0.00  -0.00  -0.01     0.07   0.02   0.00     0.00  -0.00  -0.00
                     10                     11                     12
                      A                      A                      A
 Frequencies --   3231.7125              3305.5864              4117.0848
 Red. masses --      1.1064                 1.0991                 1.0670
 Frc consts  --      6.8082                 7.0759                10.6555
 IR Inten    --    100.0532                49.0208                40.6589
 Raman Activ --     67.3750                74.4880                70.4853
 Depolar (P) --      0.7500                 0.5525                 0.3097
 Depolar (U) --      0.8571                 0.7118                 0.4729
  Atom  AN      X      Y      Z        X      Y      Z        X      Y      Z
     1   6    -0.00  -0.00  -0.09     0.02  -0.09   0.00    -0.00  -0.00   0.00
     2   8     0.00   0.00   0.00    -0.00   0.00  -0.00     0.03  -0.06  -0.00
     3   1    -0.22  -0.35   0.57     0.06   0.08  -0.16    -0.00   0.00  -0.00
     4   1     0.22   0.35   0.57     0.06   0.08   0.16    -0.00   0.00   0.00
     5   1     0.00  -0.00  -0.02    -0.36   0.89  -0.00    -0.00   0.01  -0.00
     6   1    -0.00  -0.00   0.00    -0.00  -0.02   0.00    -0.43   0.90   0.00

 -------------------
 - Thermochemistry -
 -------------------
 Temperature   298.150 Kelvin.  Pressure   1.00000 Atm.
 Atom     1 has atomic number  6 and mass  12.00000
 Atom     2 has atomic number  8 and mass  15.99491
 Atom     3 has atomic number  1 and mass   1.00783
 Atom     4 has atomic number  1 and mass   1.00783
 Atom     5 has atomic number  1 and mass   1.00783
 Atom     6 has atomic number  1 and mass   1.00783
 Molecular mass:    32.02621 amu.
 Principal axes and moments of inertia in atomic units:
                           1         2         3
     Eigenvalues --    13.77596  70.96626  73.49976
           X            0.99896  -0.04570  -0.00000
           Y            0.04570   0.99896  -0.00000
           Z            0.00000   0.00000   1.00000
 This molecule is an asymmetric top.
 Rotational symmetry number  1.
 Rotational temperatures (Kelvin)      6.28732     1.22049     1.17842
 Rotational constants (GHZ):         131.00658    25.43097    24.55438
 Zero-point vibrational energy     145307.5 (Joules/Mol)
                                   34.72934 (Kcal/Mol)
 Warning -- explicit consideration of   1 degrees of freedom as
           vibrations may cause significant error
 Vibrational temperatures:    503.14  1675.91  1710.56  1855.92  2169.98
          (Kelvin)           2355.79  2376.22  2393.15  4583.00  4649.71
                             4756.00  5923.57
 
 Zero-point correction=                           0.055345 (Hartree/Particle)
 Thermal correction to Energy=                    0.058600
 Thermal correction to Enthalpy=                  0.059544
[...]
  YYZ=              0.0000  XYZ=             -0.0000
 Hexadecapole moment (field-independent basis, Debye-Ang**3):
 XXXX=            -60.3990 YYYY=            -19.0721 ZZZZ=            -18.9479 XXXY=             -3.6591
 XXXZ=             -0.0000 YYYX=             -3.0327 YYYZ=              0.0000 ZZZX=              0.0000
 ZZZY=              0.0000 XXYY=            -11.9625 XXZZ=            -13.7154 YYZZ=             -6.5016
 XXYZ=              0.0000 YYXZ=             -0.0000 ZZXY=              0.2577
 N-N= 4.020651460563D+01 E-N=-3.517136466905D+02  KE= 1.149733807796D+02

 Test job not archived.
 1\1\GINC-ASTERIX\SP\RMP4SDTQ-FC\6-311G(2df,p)\C1H4O1\MTMJEA001\25-Feb-
 2020\0\\#N Geom=AllCheck Guess=TCheck SCRF=Check Test MP4/6-311G(2df,p
 )\\methanol\\0,1\C,0,1.0984291635,0.0628283744,0.0255530558\O,0,2.5208
 387062,0.0268463175,0.0300900042\H,0,0.6943593225,0.4420559405,-0.9210
 217169\H,0,0.6943597157,0.6651703767,0.848354256\H,0,0.7658948109,-0.9
 667208467,0.1553770282\H,0,2.8346182812,0.9374198336,-0.084732658\\Ver
 sion=ES64L-G16RevC.01\State=1-A\HF=-115.0796302\MP2=-115.4927311\MP3=-
 115.5096797\MP4D=-115.5183422\MP4DQ=-115.5110404\MP4SDQ=-115.5139334\M
 P4SDTQ=-115.5278737\RMSD=4.020e-09\PG=C01 [X(C1H4O1)]\\@


          EVOLUTION
 IN THE BEGINNING GOD MADE MAN.
 HE WORKED THE DIRT WITH HIS HANDS.
 THEN GOD DECIDED TO GIVE MAN SCIENCE,
 MAN SHOULD BE USEFUL (LIKE AN APPLIANCE.)
 BUT SOON MAN'S KNOWLEDGE GREW TOO GREAT,
 TO THE HEADING SCIENCE HE COULDN'T RELATE
 SO GOD SAID "LETS HAVE DIFFERENT FIELDS,
 WE'LL DIVIDE THEM UP, SEE WHAT IT YIELDS."
 ENTER PHYSICS, CHEMISTRY, BIO
 THEY SPRANG UP AROUND THE NILE.
 BUT CHEMISTRY SURPASSED THE REST
 FAR AND AWAY IT WAS THE BEST.
 EXPERIMENT WAS GOD'S DECREE
 EXPERIMENT DID CHEMISTS WITH LOTS OF GLEE
 BUT SOON THEIR TESTS BEGAN TO BOG,
 THEY FOUND THEMSELVES DEEP IN A FOG.
 "GIVE US SOME HELP" THEY CRIED TO GOD.
 GOD LOOKED AROUND, THEN GAVE THE NOD.
 ENTER EINSTEIN, HEISENBERG, BOHR,
 REACTION PATHS WERE CLEAR ONCE MORE.
 WITH THEORISTS GOD SEND DIRECTION
 AND THEN HE STOPPED, HE'D MADE PERFECTION.
          -- THOMAS A. HOLME, 1981
 Job cpu time:       0 days  0 hours  0 minutes 38.3 seconds.
 Elapsed time:       0 days  0 hours  0 minutes  3.5 seconds.
 File lengths (MBytes):  RWF=    121 Int=      0 D2E=      0 Chk=      2 Scr=      1
 Normal termination of Gaussian 16 at Tue Feb 25 15:27:36 2020.
 Link1:  Proceeding to internal job step number  7.
 -----------------------------------------------------------------
 #N Geom=AllCheck Guess=TCheck SCRF=Check Test MP2/6-311+G(3df,2p)
 -----------------------------------------------------------------
 1/29=7,38=1,40=1,172=1/1;
 2/12=2,40=1/2;
 3/5=4,6=6,7=216,11=9,14=-4,25=1,30=1,70=2,116=-2/1,2,3;
 4/5=101/1;
 5/5=2,38=6/2;
 8/10=2/1;
 9/16=-3/6;
 6/7=2,8=2,9=2,10=2/1;
 99/5=1,9=1/99;
 Structure from the checkpoint file:  "methanol.chk"
 --------
 methanol
 --------
 Charge =  0 Multiplicity = 1
 Redundant internal coordinates found in file.  (old form).
 C,0,1.0984291635,0.0628283743,0.0255530549
 O,0,2.5208387062,0.0268463166,0.0300899972
 H,0,0.6943593225,0.4420559405,-0.9210217169
 H,0,0.6943597157,0.6651703767,0.848354256
 H,0,0.7658948109,-0.9667208467,0.1553770282
 H,0,2.8346182812,0.9374198336,-0.084732658
 Recover connectivity data from disk.
                           ----------------------------
                           !    Current Parameters    !
                           ! (Angstroms and Degrees)  !
 --------------------------                            --------------------------
 ! Name  Definition              Value                                          !
 --------------------------------------------------------------------------------
 ! R1    R(1,2)                  1.4229                                         !
 ! R2    R(1,3)                  1.0969                                         !
 ! R3    R(1,4)                  1.0969                                         !
 ! R4    R(1,5)                  1.0897                                         !
 ! R5    R(2,6)                  0.9699                                         !
 ! A1    A(2,1,3)              112.3191                                         !
 ! A2    A(2,1,4)              112.3191                                         !
 ! A3    A(2,1,5)              106.3076                                         !
 ! A4    A(3,1,4)              108.7714                                         !
 ! A5    A(3,1,5)              108.4851                                         !
 ! A6    A(4,1,5)              108.4851                                         !
 ! A7    A(1,2,6)              107.4144                                         !
 ! D1    D(3,1,2,6)             61.4969                                         !
 ! D2    D(4,1,2,6)            -61.497                                          !
 ! D3    D(5,1,2,6)            179.9999                                         !
 --------------------------------------------------------------------------------
                          Input orientation:                          
 ---------------------------------------------------------------------
 Center     Atomic      Atomic             Coordinates (Angstroms)
 Number     Number       Type             X           Y           Z
 ---------------------------------------------------------------------
      1          6           0        1.098429    0.062828    0.025553
      2          8           0        2.520839    0.026846    0.030090
      3          1           0        0.694359    0.442056   -0.921022
      4          1           0        0.694360    0.665170    0.848354
      5          1           0        0.765895   -0.966721    0.155377
      6          1           0        2.834618    0.937420   -0.084733
 ---------------------------------------------------------------------
                    Distance matrix (angstroms):
                    1          2          3          4          5
     1  C    0.000000
     2  O    1.422872   0.000000
     3  H    1.096854   2.100724   0.000000
     4  H    1.096855   2.100724   1.783388   0.000000
     5  H    1.089681   2.020569   1.774374   1.774374   0.000000
     6  H    1.947158   0.969941   2.350633   2.350633   2.821883
                    6
     6  H    0.000000
 Stoichiometry    CH4O
 Framework group  C1[X(CH4O)]
 Deg. of freedom    12
 Full point group                 C1      NOp   1
 Largest Abelian subgroup         C1      NOp   1
 Largest concise Abelian subgroup C1      NOp   1
                         Standard orientation:                         
 ---------------------------------------------------------------------
 Center     Atomic      Atomic             Coordinates (Angstroms)
 Number     Number       Type             X           Y           Z
 ---------------------------------------------------------------------
      1          6           0       -0.665664   -0.019523    0.000000
      2          8           0        0.750082    0.122708    0.000000
      3          1           0       -1.031722   -0.542948    0.891693
      4          1           0       -1.031722   -0.542946   -0.891694
      5          1           0       -1.074650    0.990494    0.000001
      6          1           0        1.131424   -0.769124   -0.000000
 ---------------------------------------------------------------------
 Rotational constants (GHZ):         127.3107785          24.7370777          23.8450321
 Standard basis: 6-311+G(3df,2p) (5D, 7F)
 There are   126 symmetry adapted cartesian basis functions of A   symmetry.
 There are   114 symmetry adapted basis functions of A   symmetry.
   114 basis functions,   160 primitive gaussians,   126 cartesian basis functions
     9 alpha electrons        9 beta electrons
       nuclear repulsion energy        40.2065146056 Hartrees.
 NAtoms=    6 NActive=    6 NUniq=    6 SFac= 1.00D+00 NAtFMM=   60 NAOKFM=F Big=F
 Integral buffers will be    131072 words long.
 Raffenetti 1 integral format.
 Two-electron integral symmetry is turned on.
 One-electron integrals computed using PRISM.
 NBasis=   114 RedAO= T EigKep=  8.67D-04  NBF=   114
 NBsUse=   114 1.00D-06 EigRej= -1.00D+00 NBFU=   114
 Initial guess from the checkpoint file:  "methanol.chk"
 B after Tr=    -0.000000   -0.000000    0.000000
         Rot=    1.000000    0.000000   -0.000000    0.000000 Ang=   0.00 deg.
 Keep R1 ints in memory in canonical form, NReq=27369042.
 Requested convergence on RMS density matrix=1.00D-08 within 128 cycles.
 Requested convergence on MAX density matrix=1.00D-06.
 Requested convergence on             energy=1.00D-06.
 No special actions if energy rises.
 SCF Done:  E(RHF) =  -115.087791608     A.U. after   10 cycles
            NFock= 10  Conv=0.49D-08     -V/T= 2.0015
 ExpMin= 4.38D-02 ExpMax= 8.59D+03 ExpMxC= 1.30D+03 IAcc=3 IRadAn=         5 AccDes= 0.00D+00
 HarFok:  IExCor=  205 AccDes= 0.00D+00 IRadAn=         5 IDoV=-2 UseB2=F ITyADJ=14
 ICtDFT= 12500011 ScaDFX=  1.000000  1.000000  1.000000  1.000000
 Range of M.O.s used for correlation:     3   114
 NBasis=   114 NAE=     9 NBE=     9 NFC=     2 NFV=     0
 NROrb=    112 NOA=     7 NOB=     7 NVA=   105 NVB=   105

 **** Warning!!: The largest alpha MO coefficient is  0.11458653D+02

 Fully in-core method, ICMem=    74629995.
 JobTyp=1 Pass  1 fully in-core, NPsUse= 12.
 Spin components of T(2) and E(2):
     alpha-alpha T2 =       0.1361782023D-01 E2=     -0.4941750503D-01
     alpha-beta  T2 =       0.8597298954D-01 E2=     -0.3270331295D+00
     beta-beta   T2 =       0.1361782023D-01 E2=     -0.4941750503D-01
 ANorm=    0.1055087025D+01
 E2 =    -0.4258681395D+00 EUMP2 =    -0.11551365974772D+03

 **********************************************************************

            Population analysis using the SCF Density.

 **********************************************************************

 Orbital symmetries:
       Occupied  (A) (A) (A) (A) (A) (A) (A) (A) (A)
       Virtual   (A) (A) (A) (A) (A) (A) (A) (A) (A) (A) (A) (A)
                 (A) (A) (A) (A) (A) (A) (A) (A) (A) (A) (A) (A)
                 (A) (A) (A) (A) (A) (A) (A) (A) (A) (A) (A) (A)
                 (A) (A) (A) (A) (A) (A) (A) (A) (A) (A) (A) (A)
                 (A) (A) (A) (A) (A) (A) (A) (A) (A) (A) (A) (A)
                 (A) (A) (A) (A) (A) (A) (A) (A) (A) (A) (A) (A)
                 (A) (A) (A) (A) (A) (A) (A) (A) (A) (A) (A) (A)
                 (A) (A) (A) (A) (A) (A) (A) (A) (A) (A) (A) (A)
                 (A) (A) (A) (A) (A) (A) (A) (A) (A)
 The electronic state is 1-A.
 Alpha  occ. eigenvalues --  -20.56043 -11.27135  -1.35561  -0.92406  -0.68981
 Alpha  occ. eigenvalues --   -0.61932  -0.59212  -0.50505  -0.45208
 Alpha virt. eigenvalues --    0.06815   0.08700   0.10131   0.10328   0.23215
 Alpha virt. eigenvalues --    0.25127   0.26173   0.27146   0.29753   0.30634
 Alpha virt. eigenvalues --    0.31147   0.33008   0.41950   0.43131   0.43745
 Alpha virt. eigenvalues --    0.52727   0.53045   0.67271   0.67367   0.71548
 Alpha virt. eigenvalues --    0.73113   0.76737   0.78542   0.81322   0.89225
 Alpha virt. eigenvalues --    0.92330   1.01864   1.04454   1.06775   1.16917
 Alpha virt. eigenvalues --    1.19815   1.21565   1.21655   1.24326   1.25444
 Alpha virt. eigenvalues --    1.27103   1.37977   1.38035   1.41886   1.47366
 Alpha virt. eigenvalues --    1.50777   1.55139   1.57179   1.64901   1.73841
 Alpha virt. eigenvalues --    1.89276   2.20171   2.24322   2.29899   2.30957
 Alpha virt. eigenvalues --    2.38414   2.43310   2.76682   2.95242   2.99250
 Alpha virt. eigenvalues --    3.09450   3.19715   3.24380   3.31291   3.44946
 Alpha virt. eigenvalues --    3.57510   3.60179   3.65085   3.65321   3.82317
 Alpha virt. eigenvalues --    3.85719   3.87805   3.91626   4.14753   4.18557
 Alpha virt. eigenvalues --    4.37301   4.47929   4.57590   4.58532   4.61995
 Alpha virt. eigenvalues --    4.69631   4.74299   4.75428   4.84411   5.14048
 Alpha virt. eigenvalues --    5.39758   5.58311   5.66639   5.69588   5.89345
 Alpha virt. eigenvalues --    5.98108   5.99453   6.10004   6.12498   6.31649
 Alpha virt. eigenvalues --    6.43273   6.90510   7.55977   7.72197   7.80553
 Alpha virt. eigenvalues --    8.38560   8.39000   8.52600  15.08719  15.15479
 Alpha virt. eigenvalues --   15.18562  15.44641  15.75686  25.43209  51.82566
          Condensed to atoms (all electrons):
               1          2          3          4          5          6
     1  C    4.543549   0.039840   0.442413   0.442413   0.427895  -0.053848
     2  O    0.039840   8.504918  -0.040593  -0.040593  -0.038504   0.254412
     3  H    0.442413  -0.040593   0.549476  -0.026241  -0.021651  -0.005448
     4  H    0.442413  -0.040593  -0.026241   0.549476  -0.021652  -0.005448
     5  H    0.427895  -0.038504  -0.021651  -0.021652   0.543423   0.006379
     6  H   -0.053848   0.254412  -0.005448  -0.005448   0.006379   0.590409
 Mulliken charges:
               1
     1  C    0.157739
     2  O   -0.679480
     3  H    0.102044
     4  H    0.102044
     5  H    0.104110
     6  H    0.213544
 Sum of Mulliken charges =  -0.00000
 Mulliken charges with hydrogens summed into heavy atoms:
               1
     1  C    0.465936
     2  O   -0.465936
 Electronic spatial extent (au):  <R**2>=             84.6046
 Charge=             -0.0000 electrons
 Dipole moment (field-independent basis, Debye):
    X=             -0.9633    Y=             -1.5733    Z=              0.0000  Tot=              1.8448
 Quadrupole moment (field-independent basis, Debye-Ang):
   XX=            -13.0616   YY=            -12.0527   ZZ=            -13.7578
   XY=             -2.2971   XZ=             -0.0000   YZ=              0.0000
 Traceless Quadrupole moment (field-independent basis, Debye-Ang):
   XX=             -0.1042   YY=              0.9047   ZZ=             -0.8004
   XY=             -2.2971   XZ=             -0.0000   YZ=              0.0000
 Octapole moment (field-independent basis, Debye-Ang**2):
  XXX=              4.1318  YYY=             -0.6660  ZZZ=             -0.0000  XYY=              1.8487
  XXY=             -2.4868  XXZ=              0.0000  XZZ=              0.1472  YZZ=             -0.7198
  YYZ=              0.0000  XYZ=             -0.0000
 Hexadecapole moment (field-independent basis, Debye-Ang**3):
 XXXX=            -62.3885 YYYY=            -19.7095 ZZZZ=            -19.6644 XXXY=             -4.0032
 XXXZ=             -0.0000 YYYX=             -3.2947 YYYZ=              0.0000 ZZZX=              0.0000
 ZZZY=             -0.0000 XXYY=            -12.4890 XXZZ=            -14.4356 YYZZ=             -6.7398
 XXYZ=              0.0000 YYXZ=             -0.0000 ZZXY=              0.2294
 N-N= 4.020651460563D+01 E-N=-3.515611920607D+02  KE= 1.149122622655D+02

 Test job not archived.
 1\1\GINC-ASTERIX\SP\RMP2-FC\6-311+G(3df,2p)\C1H4O1\MTMJEA001\25-Feb-20
 20\0\\#N Geom=AllCheck Guess=TCheck SCRF=Check Test MP2/6-311+G(3df,2p
 )\\methanol\\0,1\C,0,1.0984291635,0.0628283743,0.0255530549\O,0,2.5208
 387062,0.0268463166,0.0300899972\H,0,0.6943593225,0.4420559405,-0.9210
 217169\H,0,0.6943597157,0.6651703767,0.848354256\H,0,0.7658948109,-0.9
 667208467,0.1553770282\H,0,2.8346182812,0.9374198336,-0.084732658\\Ver
 sion=ES64L-G16RevC.01\State=1-A\HF=-115.0877916\MP2=-115.5136597\RMSD=
 4.939e-09\PG=C01 [X(C1H4O1)]\\@


0EVERYBODY IS IGNORANT, ONLY ON DIFFERENT SUBJECTS.
0          WILL ROGERS
 Diagonal vibrational polarizability:
        0.0000000       0.0000000       0.0000000
 
 Temperature=              298.150000 Pressure=                      1.000000
 E(ZPE)=                     0.049415 E(Thermal)=                    0.052759
 E(QCISD(T))=             -115.468766 E(Empiric)=                   -0.042980
 DE(Plus)=                  -0.008858 DE(2DF)=                      -0.059399
 G1(0 K)=                 -115.530589 G1 Energy=                  -115.527244
 G1 Enthalpy=             -115.526300 G1 Free Energy=             -115.553313
 E(Delta-G2)=               -0.012278 E(G2-Empiric)=                 0.007980
 G2(0 K)=                 -115.534887 G2 Energy=                  -115.531543
 G2 Enthalpy=             -115.530598 G2 Free Energy=             -115.557611
 DE(MP2)=                   -0.077455
 G2MP2(0 K)=              -115.531807 G2MP2 Energy=               -115.528462
 G2MP2 Enthalpy=          -115.527518 G2MP2 Free Energy=          -115.554531

 Test job not archived.
 1\1\GINC-ASTERIX\Mixed\G2\G2\C1H4O1\MTMJEA001\25-Feb-2020\0\\#G2\\meth
 anol\\0,1\C,0,1.0984291635,0.0628283743,0.0255530549\O,0,2.5208387062,
 0.0268463166,0.0300899972\H,0,0.6943593225,0.4420559405,-0.9210217169\
 H,0,0.6943597157,0.6651703767,0.848354256\H,0,0.7658948109,-0.96672084
 67,0.1553770282\H,0,2.8346182812,0.9374198336,-0.084732658\\Version=ES
 64L-G16RevC.01\State=1-A\MP2/6-311G(d,p)=-115.4362047\QCISD(T)/6-311G(
 d,p)=-115.4687664\MP4/6-311G(d,p)=-115.4684746\MP2/6-311+G(d,p)=-115.4
 448553\MP4/6-311+G(d,p)=-115.4773327\MP2/6-311G(2df,p)=-115.4927311\MP
 4/6-311G(2df,p)=-115.5278737\MP2/6-311+G(3df,2p)=-115.5136597\G1=-115.
 5305887\G2MP2=-115.5318065\G2=-115.5348868\FreqCoord=2.0839254901,0.11
 69521714,0.0485117812,4.7283966561,0.0804377996,0.0531136501,1.3271104
 592,0.828610996,-1.7244190911,1.32711302,1.2464620146,1.5892757019,1.4
 549829514,-1.8114624554,0.2916822021,5.3461787665,1.7454436967,-0.1568
 371308\PG=C01 [X(C1H4O1)]\NImag=0\\0.58064449,0.01312195,0.70050028,-0
 .00165460,-0.00691701,0.64651784,-0.30663604,0.03424288,-0.00431768,0.
 51483743,-0.01960337,-0.11570597,0.00518010,0.15804181,0.63325916,0.00
 247207,0.00518002,-0.07527868,-0.01992876,-0.07300027,0.06353800,-0.08
 807581,0.02662533,-0.07179786,-0.03625463,0.01581219,-0.03644022,0.108
 60593,0.03033257,-0.10190333,0.08289433,0.00180738,0.00582057,-0.00131
 886,-0.03670356,0.09532136,-0.07608194,0.08392209,-0.27646641,-0.00512
 959,-0.00262886,0.01116544,0.09001521,-0.09353969,0.29204945,-0.088075
 64,0.04361542,0.06294036,-0.03625453,0.02436348,0.03137423,0.00768102,
 -0.00719103,-0.00789520,0.10860565,0.04827016,-0.15277692,-0.11459251,
 0.00302421,0.00709927,0.00236088,-0.00500592,0.01022180,0.01100540,-0.
 05790059,0.15243375,0.06617002,-0.11562027,-0.22559303,0.00452040,0.00
 367085,0.00988663,0.00943316,-0.01998104,-0.02480217,-0.07808555,0.129
 31933,0.23493735,-0.07820161,-0.06499140,0.00819533,-0.02535269,-0.047
 30798,0.00596544,0.00607110,0.01167077,-0.00003245,0.00607108,0.011313
 44,-0.00286583,0.10049989,-0.08079319,-0.33320610,0.03382193,-0.003216
 27,0.00617916,-0.00043173,-0.00199604,-0.00997016,0.00143766,-0.004283
 69,-0.01784462,0.00263487,0.08874374,0.35197657,0.01018790,0.03382192,
 -0.06925285,0.00040559,-0.00043169,0.00280993,0.00946682,0.03336190,-0
 .00195315,-0.00867496,-0.02928939,0.00592133,-0.01119047,-0.03716676,0
 .06191951,-0.01965540,-0.05261417,0.00663445,-0.11033955,-0.13130613,0
 .01655725,0.00197238,0.00008386,-0.00087603,0.00197241,0.00029871,0.00
 082779,-0.00908777,0.00154545,-0.00019487,0.13513793,0.00867188,0.0030
 9203,-0.00038683,-0.19390000,-0.53665219,0.06720995,0.00126801,0.00050
 976,-0.00019661,0.00139641,0.00086673,-0.00002374,0.00057142,0.0028651
 5,-0.00029598,0.18199228,0.52931852,-0.00109345,-0.00038675,0.00007312
 ,0.02445005,0.06720986,-0.01212133,-0.00067712,-0.00141664,0.00000684,
 0.00034113,0.00119629,-0.00035011,-0.00007202,-0.00029597,0.00055523,-
 0.02294859,-0.06630678,0.01183625\\-0.00019162,0.00005488,-0.00000689,
 -0.00012336,-0.00009860,0.00001240,0.00012757,0.00002121,-0.00001961,0
 .00012754,0.00002540,0.00001372,0.00012450,-0.00005125,0.00000648,-0.0
 0006464,0.00004837,-0.00000609\\\@
 Job cpu time:       0 days  0 hours  0 minutes 23.9 seconds.
 Elapsed time:       0 days  0 hours  0 minutes  2.5 seconds.
 File lengths (MBytes):  RWF=    121 Int=      0 D2E=      0 Chk=      2 Scr=      1
 Normal termination of Gaussian 16 at Tue Feb 25 15:27:39 2020.
