 Entering Gaussian System, Link 0=g16
 Input=water.gjf
 Output=water.log
 Initial command:
 /opt/g16/l1.exe "/scratch/mtmjea001/water/Gau-21390.inp" -scrdir="/scratch/mtmjea001/water/"
 Entering Link 1 = /opt/g16/l1.exe PID=     21391.
  
 Copyright (c) 1988-2019, Gaussian, Inc.  All Rights Reserved.
  
 This is part of the Gaussian(R) 16 program.  It is based on
 the Gaussian(R) 09 system (copyright 2009, Gaussian, Inc.),
 the Gaussian(R) 03 system (copyright 2003, Gaussian, Inc.),
 the Gaussian(R) 98 system (copyright 1998, Gaussian, Inc.),
 the Gaussian(R) 94 system (copyright 1995, Gaussian, Inc.),
 the Gaussian 92(TM) system (copyright 1992, Gaussian, Inc.),
 the Gaussian 90(TM) system (copyright 1990, Gaussian, Inc.),
 the Gaussian 88(TM) system (copyright 1988, Gaussian, Inc.),
 the Gaussian 86(TM) system (copyright 1986, Carnegie Mellon
 University), and the Gaussian 82(TM) system (copyright 1983,
 Carnegie Mellon University). Gaussian is a federally registered
 trademark of Gaussian, Inc.
  
 This software contains proprietary and confidential information,
 including trade secrets, belonging to Gaussian, Inc.
  
 This software is provided under written license and may be
 used, copied, transmitted, or stored only in accord with that
 written license.
  
 The following legend is applicable only to US Government
 contracts under FAR:
  
                    RESTRICTED RIGHTS LEGEND
  
 Use, reproduction and disclosure by the US Government is
 subject to restrictions as set forth in subparagraphs (a)
 and (c) of the Commercial Computer Software - Restricted
 Rights clause in FAR 52.227-19.
  
 Gaussian, Inc.
 340 Quinnipiac St., Bldg. 40, Wallingford CT 06492
  
  
 ---------------------------------------------------------------
 Warning -- This program may not be used in any manner that
 competes with the business of Gaussian, Inc. or will provide
 assistance to any competitor of Gaussian, Inc.  The licensee
 of this program is prohibited from giving any competitor of
 Gaussian, Inc. access to this program.  By using this program,
 the user acknowledges that Gaussian, Inc. is engaged in the
 business of creating and licensing software in the field of
 computational chemistry and represents and warrants to the
 licensee that it is not a competitor of Gaussian, Inc. and that
 it will not use this program in any manner prohibited above.
 ---------------------------------------------------------------
  

 Cite this work as:
 Gaussian 16, Revision C.01,
 M. J. Frisch, G. W. Trucks, H. B. Schlegel, G. E. Scuseria, 
 M. A. Robb, J. R. Cheeseman, G. Scalmani, V. Barone, 
 G. A. Petersson, H. Nakatsuji, X. Li, M. Caricato, A. V. Marenich, 
 J. Bloino, B. G. Janesko, R. Gomperts, B. Mennucci, H. P. Hratchian, 
 J. V. Ortiz, A. F. Izmaylov, J. L. Sonnenberg, D. Williams-Young, 
 F. Ding, F. Lipparini, F. Egidi, J. Goings, B. Peng, A. Petrone, 
 T. Henderson, D. Ranasinghe, V. G. Zakrzewski, J. Gao, N. Rega, 
 G. Zheng, W. Liang, M. Hada, M. Ehara, K. Toyota, R. Fukuda, 
 J. Hasegawa, M. Ishida, T. Nakajima, Y. Honda, O. Kitao, H. Nakai, 
 T. Vreven, K. Throssell, J. A. Montgomery, Jr., J. E. Peralta, 
 F. Ogliaro, M. J. Bearpark, J. J. Heyd, E. N. Brothers, K. N. Kudin, 
 V. N. Staroverov, T. A. Keith, R. Kobayashi, J. Normand, 
 K. Raghavachari, A. P. Rendell, J. C. Burant, S. S. Iyengar, 
 J. Tomasi, M. Cossi, J. M. Millam, M. Klene, C. Adamo, R. Cammi, 
 J. W. Ochterski, R. L. Martin, K. Morokuma, O. Farkas, 
 J. B. Foresman, and D. J. Fox, Gaussian, Inc., Wallingford CT, 2019.
 
 ******************************************
 Gaussian 16:  ES64L-G16RevC.01  3-Jul-2019
                25-Feb-2020 
 ******************************************
 %nprocs=12
 Will use up to   12 processors via shared memory.
 Default route: test
 ---
 #g2
 ---
 1/18=20,19=15,38=1/1,3;
 2/9=110,12=2,17=6,18=5,40=1/2;
 3/5=1,6=6,7=1,11=9,25=1,30=1,71=1/1,2,3;
 4//1;
 5/5=2,38=5/2;
 6/7=2,8=2,9=2,10=2,28=1/1;
 7//1,2,3,16;
 1/18=20,19=15/3(2);
 2/9=110/2;
 99//99;
 2/9=110/2;
 3/5=1,6=6,7=1,11=9,25=1,30=1,71=1/1,2,3;
 4/5=5,16=3,69=1/1;
 5/5=2,38=5/2;
 7//1,2,3,16;
 1/18=20,19=15/3(-5);
 2/9=110/2;
 6/7=2,8=2,9=2,10=2,19=2,28=1/1;
 99/9=1/99;
 -----
 water
 -----
 Symbolic Z-matrix:
 Charge =  0 Multiplicity = 1
 O                     0.94349  -0.05055  -0.0594 
 H                     1.91138  -0.09664  -0.05386 
 H                     0.66464  -0.97192   0.05135 
 

 GradGradGradGradGradGradGradGradGradGradGradGradGradGradGradGradGradGrad
 Berny optimization.
 Initialization pass.
                           ----------------------------
                           !    Initial Parameters    !
                           ! (Angstroms and Degrees)  !
 --------------------------                            --------------------------
 ! Name  Definition              Value          Derivative Info.                !
 --------------------------------------------------------------------------------
 ! R1    R(1,2)                  0.969          estimate D2E/DX2                !
 ! R2    R(1,3)                  0.969          estimate D2E/DX2                !
 ! A1    A(2,1,3)              103.9788         estimate D2E/DX2                !
 --------------------------------------------------------------------------------
 Trust Radius=3.00D-01 FncErr=1.00D-07 GrdErr=1.00D-07 EigMax=2.50D+02 EigMin=1.00D-04
 Number of steps in this run=     20 maximum allowed number of steps=    100.
 GradGradGradGradGradGradGradGradGradGradGradGradGradGradGradGradGradGrad

                          Input orientation:                          
 ---------------------------------------------------------------------
 Center     Atomic      Atomic             Coordinates (Angstroms)
 Number     Number       Type             X           Y           Z
 ---------------------------------------------------------------------
      1          8           0        0.943490   -0.050550   -0.059400
      2          1           0        1.911380   -0.096640   -0.053860
      3          1           0        0.664640   -0.971920    0.051350
 ---------------------------------------------------------------------
                    Distance matrix (angstroms):
                    1          2          3
     1  O    0.000000
     2  H    0.969003   0.000000
     3  H    0.968992   1.526940   0.000000
 Stoichiometry    H2O
 Framework group  CS[SG(H2O)]
 Deg. of freedom     3
 Full point group                 CS      NOp   2
 Largest Abelian subgroup         CS      NOp   2
 Largest concise Abelian subgroup C1      NOp   1
                         Standard orientation:                         
 ---------------------------------------------------------------------
 Center     Atomic      Atomic             Coordinates (Angstroms)
 Number     Number       Type             X           Y           Z
 ---------------------------------------------------------------------
      1          8           0        0.000000    0.119343   -0.000000
      2          1           0        0.763470   -0.477381   -0.000000
      3          1           0       -0.763470   -0.477364    0.000000
 ---------------------------------------------------------------------
 Rotational constants (GHZ):         792.8893542         430.1483665         278.8630757
 Standard basis: 6-31G(d) (6D, 7F)
 There are    15 symmetry adapted cartesian basis functions of A'  symmetry.
 There are     4 symmetry adapted cartesian basis functions of A"  symmetry.
 There are    15 symmetry adapted basis functions of A'  symmetry.
 There are     4 symmetry adapted basis functions of A"  symmetry.
    19 basis functions,    36 primitive gaussians,    19 cartesian basis functions
     5 alpha electrons        5 beta electrons
       nuclear repulsion energy         9.0842890623 Hartrees.
 NAtoms=    3 NActive=    3 NUniq=    3 SFac= 1.00D+00 NAtFMM=   60 NAOKFM=F Big=F
 Integral buffers will be    131072 words long.
 Raffenetti 1 integral format.
 Two-electron integral symmetry is turned on.
 One-electron integrals computed using PRISM.
 NBasis=    19 RedAO= T EigKep=  2.27D-02  NBF=    15     4
 NBsUse=    19 1.00D-06 EigRej= -1.00D+00 NBFU=    15     4
 ExpMin= 1.61D-01 ExpMax= 5.48D+03 ExpMxC= 8.25D+02 IAcc=3 IRadAn=         5 AccDes= 0.00D+00
 Harris functional with IExCor=  205 and IRadAn=       5 diagonalized for initial guess.
 HarFok:  IExCor=  205 AccDes= 0.00D+00 IRadAn=         5 IDoV= 1 UseB2=F ITyADJ=14
 ICtDFT=  3500011 ScaDFX=  1.000000  1.000000  1.000000  1.000000
 FoFCou: FMM=F IPFlag=           0 FMFlag=      100000 FMFlg1=           0
         NFxFlg=           0 DoJE=T BraDBF=F KetDBF=T FulRan=T
         wScrn=  0.000000 ICntrl=       500 IOpCl=  0 I1Cent=   200000004 NGrid=           0
         NMat0=    1 NMatS0=      1 NMatT0=    0 NMatD0=    1 NMtDS0=    0 NMtDT0=    0
 Petite list used in FoFCou.
 Initial guess orbital symmetries:
       Occupied  (A') (A') (A') (A') (A")
       Virtual   (A') (A') (A') (A') (A") (A') (A') (A') (A') (A")
                 (A") (A') (A') (A')
 The electronic state of the initial guess is 1-A'.
 Keep R1 ints in memory in symmetry-blocked form, NReq=2487617.
 Requested convergence on RMS density matrix=1.00D-08 within 128 cycles.
 Requested convergence on MAX density matrix=1.00D-06.
 Requested convergence on             energy=1.00D-06.
 No special actions if energy rises.
 SCF Done:  E(RHF) =  -76.0097720051     A.U. after   10 cycles
            NFock= 10  Conv=0.42D-08     -V/T= 2.0031

 **********************************************************************

            Population analysis using the SCF Density.

 **********************************************************************

 Orbital symmetries:
       Occupied  (A') (A') (A') (A') (A")
       Virtual   (A') (A') (A') (A') (A') (A") (A') (A') (A') (A")
                 (A") (A') (A') (A')
 The electronic state is 1-A'.
 Alpha  occ. eigenvalues --  -20.56299  -1.33624  -0.69953  -0.56995  -0.49734
 Alpha virt. eigenvalues --    0.20811   0.30088   1.01506   1.12803   1.16257
 Alpha virt. eigenvalues --    1.16766   1.37664   1.43544   2.02154   2.03700
 Alpha virt. eigenvalues --    2.06920   2.60736   2.92589   3.96341
          Condensed to atoms (all electrons):
               1          2          3
     1  O    8.339154   0.262489   0.262490
     2  H    0.262489   0.324107  -0.018662
     3  H    0.262490  -0.018662   0.324105
 Mulliken charges:
               1
     1  O   -0.864134
     2  H    0.432066
     3  H    0.432067
 Sum of Mulliken charges =  -0.00000
 Mulliken charges with hydrogens summed into heavy atoms:
               1
     1  O   -0.000000
 Electronic spatial extent (au):  <R**2>=             19.0982
 Charge=             -0.0000 electrons
 Dipole moment (field-independent basis, Debye):
    X=             -0.0000    Y=             -2.2443    Z=              0.0000  Tot=              2.2443
 Quadrupole moment (field-independent basis, Debye-Ang):
   XX=             -4.1333   YY=             -5.9675   ZZ=             -7.2510
   XY=             -0.0000   XZ=             -0.0000   YZ=             -0.0000
 Traceless Quadrupole moment (field-independent basis, Debye-Ang):
   XX=              1.6506   YY=             -0.1836   ZZ=             -1.4670
   XY=             -0.0000   XZ=             -0.0000   YZ=             -0.0000
 Octapole moment (field-independent basis, Debye-Ang**2):
  XXX=             -0.0000  YYY=             -1.4509  ZZZ=             -0.0000  XYY=              0.0000
  XXY=             -1.4138  XXZ=             -0.0000  XZZ=             -0.0000  YZZ=             -0.3791
  YYZ=             -0.0000  XYZ=             -0.0000
 Hexadecapole moment (field-independent basis, Debye-Ang**3):
 XXXX=             -5.5697 YYYY=             -6.1455 ZZZZ=             -5.2341 XXXY=              0.0000
 XXXZ=             -0.0000 YYYX=              0.0000 YYYZ=             -0.0000 ZZZX=             -0.0000
 ZZZY=             -0.0000 XXYY=             -1.5951 XXZZ=             -2.0710 YYZZ=             -1.9506
 XXYZ=             -0.0000 YYXZ=             -0.0000 ZZXY=              0.0000
 N-N= 9.084289062252D+00 E-N=-1.986325774733D+02  KE= 7.577656901529D+01
 Symmetry A'   KE= 7.121864821064D+01
 Symmetry A"   KE= 4.557920804652D+00
 Calling FoFJK, ICntrl=      2127 FMM=F ISym2X=1 I1Cent= 0 IOpClX= 0 NMat=1 NMatS=1 NMatT=0.
 ***** Axes restored to original set *****
 -------------------------------------------------------------------
 Center     Atomic                   Forces (Hartrees/Bohr)
 Number     Number              X              Y              Z
 -------------------------------------------------------------------
      1        8           0.017263976   -0.024225749    0.002911968
      2        1          -0.022222362    0.002575573   -0.000309586
      3        1           0.004958386    0.021650176   -0.002602382
 -------------------------------------------------------------------
 Cartesian Forces:  Max     0.024225749 RMS     0.014506942

 GradGradGradGradGradGradGradGradGradGradGradGradGradGradGradGradGradGrad
 Berny optimization.
 FormGI is forming the generalized inverse of G from B-inverse, IUseBI=4.
 Internal  Forces:  Max     0.022321122 RMS     0.018292111
 Search for a local minimum.
 Step number   1 out of a maximum of   20
 All quantities printed in internal units (Hartrees-Bohrs-Radians)
 Mixed Optimization -- RFO/linear search
 Second derivative matrix not updated -- first step.
 The second derivative matrix:
                          R1        R2        A1
           R1           0.53581
           R2           0.00000   0.53583
           A1           0.00000   0.00000   0.16000
 ITU=  0
     Eigenvalues ---    0.16000   0.53581   0.53583
 RFO step:  Lambda=-1.90049649D-03 EMin= 1.60000000D-01
 Linear search not attempted -- first point.
 Iteration  1 RMS(Cart)=  0.02592620 RMS(Int)=  0.00023744
 Iteration  2 RMS(Cart)=  0.00025353 RMS(Int)=  0.00000003
 Iteration  3 RMS(Cart)=  0.00000002 RMS(Int)=  0.00000000
 ClnCor:  largest displacement from symmetrization is 1.83D-15 for atom     2.
 Variable       Old X    -DE/DX   Delta X   Delta X   Delta X     New X
                                 (Linear)    (Quad)   (Total)
    R1        1.83115  -0.02232   0.00000  -0.04151  -0.04151   1.78964
    R2        1.83113  -0.02231   0.00000  -0.04149  -0.04149   1.78964
    A1        1.81477   0.00280   0.00000   0.01727   0.01727   1.83204
         Item               Value     Threshold  Converged?
 Maximum Force            0.022321     0.000450     NO 
 RMS     Force            0.018292     0.000300     NO 
 Maximum Displacement     0.026246     0.001800     NO 
 RMS     Displacement     0.026019     0.001200     NO 
 Predicted change in Energy=-9.538047D-04
 GradGradGradGradGradGradGradGradGradGradGradGradGradGradGradGradGradGrad

                          Input orientation:                          
 ---------------------------------------------------------------------
 Center     Atomic      Atomic             Coordinates (Angstroms)
 Number     Number       Type             X           Y           Z
 ---------------------------------------------------------------------
      1          8           0        0.951186   -0.061349   -0.058102
      2          1           0        1.897491   -0.098288   -0.053662
      3          1           0        0.670833   -0.959473    0.049854
 ---------------------------------------------------------------------
                    Distance matrix (angstroms):
                    1          2          3
     1  O    0.000000
     2  H    0.947036   0.000000
     3  H    0.947037   1.502347   0.000000
 Stoichiometry    H2O
 Framework group  CS[SG(H2O)]
 Deg. of freedom     3
 Full point group                 CS      NOp   2
 Largest Abelian subgroup         CS      NOp   2
 Largest concise Abelian subgroup C1      NOp   1
                         Standard orientation:                         
 ---------------------------------------------------------------------
 Center     Atomic      Atomic             Coordinates (Angstroms)
 Number     Number       Type             X           Y           Z
 ---------------------------------------------------------------------
      1          8           0        0.000000    0.115346   -0.000000
      2          1           0        0.751173   -0.461382   -0.000000
      3          1           0       -0.751173   -0.461384    0.000000
 ---------------------------------------------------------------------
 Rotational constants (GHZ):         848.7980181         444.3463043         291.6613837
 Standard basis: 6-31G(d) (6D, 7F)
 There are    15 symmetry adapted cartesian basis functions of A'  symmetry.
 There are     4 symmetry adapted cartesian basis functions of A"  symmetry.
 There are    15 symmetry adapted basis functions of A'  symmetry.
 There are     4 symmetry adapted basis functions of A"  symmetry.
    19 basis functions,    36 primitive gaussians,    19 cartesian basis functions
     5 alpha electrons        5 beta electrons
       nuclear repulsion energy         9.2925839716 Hartrees.
 NAtoms=    3 NActive=    3 NUniq=    3 SFac= 1.00D+00 NAtFMM=   60 NAOKFM=F Big=F
 Integral buffers will be    131072 words long.
 Raffenetti 1 integral format.
 Two-electron integral symmetry is turned on.
 One-electron integrals computed using PRISM.
 NBasis=    19 RedAO= T EigKep=  2.19D-02  NBF=    15     4
 NBsUse=    19 1.00D-06 EigRej= -1.00D+00 NBFU=    15     4
 Initial guess from the checkpoint file:  "/scratch/mtmjea001/water/Gau-21391.chk"
 B after Tr=    -0.000000    0.000000   -0.000000
         Rot=    1.000000    0.000000    0.000000   -0.000004 Ang=  -0.00 deg.
 Initial guess orbital symmetries:
       Occupied  (A') (A') (A') (A') (A")
       Virtual   (A') (A') (A') (A') (A') (A") (A') (A') (A') (A")
                 (A") (A') (A') (A')
 ExpMin= 1.61D-01 ExpMax= 5.48D+03 ExpMxC= 8.25D+02 IAcc=3 IRadAn=         5 AccDes= 0.00D+00
 Harris functional with IExCor=  205 and IRadAn=       5 diagonalized for initial guess.
 HarFok:  IExCor=  205 AccDes= 0.00D+00 IRadAn=         5 IDoV= 1 UseB2=F ITyADJ=14
 ICtDFT=  3500011 ScaDFX=  1.000000  1.000000  1.000000  1.000000
 FoFCou: FMM=F IPFlag=           0 FMFlag=      100000 FMFlg1=           0
         NFxFlg=           0 DoJE=T BraDBF=F KetDBF=T FulRan=T
         wScrn=  0.000000 ICntrl=       500 IOpCl=  0 I1Cent=   200000004 NGrid=           0
         NMat0=    1 NMatS0=      1 NMatT0=    0 NMatD0=    1 NMtDS0=    0 NMtDT0=    0
 Petite list used in FoFCou.
 Keep R1 ints in memory in symmetry-blocked form, NReq=2487617.
 Requested convergence on RMS density matrix=1.00D-08 within 128 cycles.
 Requested convergence on MAX density matrix=1.00D-06.
 Requested convergence on             energy=1.00D-06.
 No special actions if energy rises.
 SCF Done:  E(RHF) =  -76.0107377890     A.U. after    9 cycles
            NFock=  9  Conv=0.60D-08     -V/T= 2.0020
 Calling FoFJK, ICntrl=      2127 FMM=F ISym2X=1 I1Cent= 0 IOpClX= 0 NMat=1 NMatS=1 NMatT=0.
 ***** Axes restored to original set *****
 -------------------------------------------------------------------
 Center     Atomic                   Forces (Hartrees/Bohr)
 Number     Number              X              Y              Z
 -------------------------------------------------------------------
      1        8           0.000514049   -0.000723042    0.000086911
      2        1           0.000629427    0.000983517   -0.000118220
      3        1          -0.001143475   -0.000260475    0.000031310
 -------------------------------------------------------------------
 Cartesian Forces:  Max     0.001143475 RMS     0.000627908

 GradGradGradGradGradGradGradGradGradGradGradGradGradGradGradGradGradGrad
 Berny optimization.
 Using GEDIIS/GDIIS optimizer.
 FormGI is forming the generalized inverse of G from B-inverse, IUseBI=4.
 Internal  Forces:  Max     0.001815694 RMS     0.001153532
 Search for a local minimum.
 Step number   2 out of a maximum of   20
 All quantities printed in internal units (Hartrees-Bohrs-Radians)
 Mixed Optimization -- RFO/linear search
 Update second derivatives using D2CorX and points    1    2
 DE= -9.66D-04 DEPred=-9.54D-04 R= 1.01D+00
 TightC=F SS=  1.41D+00  RLast= 6.12D-02 DXNew= 5.0454D-01 1.8353D-01
 Trust test= 1.01D+00 RLast= 6.12D-02 DXMaxT set to 3.00D-01
 The second derivative matrix:
                          R1        R2        A1
           R1           0.54819
           R2           0.01237   0.54819
           A1           0.02075   0.02074   0.15647
 ITU=  1  0
 Use linear search instead of GDIIS.
     Eigenvalues ---    0.15435   0.53582   0.56268
 RFO step:  Lambda=-2.14667030D-05 EMin= 1.54350700D-01
 Quartic linear search produced a step of -0.00852.
 Iteration  1 RMS(Cart)=  0.00660898 RMS(Int)=  0.00002417
 Iteration  2 RMS(Cart)=  0.00001995 RMS(Int)=  0.00000000
 Iteration  3 RMS(Cart)=  0.00000000 RMS(Int)=  0.00000000
 ClnCor:  largest displacement from symmetrization is 1.78D-15 for atom     2.
 Variable       Old X    -DE/DX   Delta X   Delta X   Delta X     New X
                                 (Linear)    (Quad)   (Total)
    R1        1.78964   0.00059   0.00035   0.00025   0.00060   1.79024
    R2        1.78964   0.00059   0.00035   0.00025   0.00060   1.79024
    A1        1.83204   0.00182  -0.00015   0.01163   0.01148   1.84352
         Item               Value     Threshold  Converged?
 Maximum Force            0.001816     0.000450     NO 
 RMS     Force            0.001154     0.000300     NO 
 Maximum Displacement     0.006982     0.001800     NO 
 RMS     Displacement     0.006600     0.001200     NO 
 Predicted change in Energy=-1.075350D-05
 GradGradGradGradGradGradGradGradGradGradGradGradGradGradGradGradGradGrad

                          Input orientation:                          
 ---------------------------------------------------------------------
 Center     Atomic      Atomic             Coordinates (Angstroms)
 Number     Number       Type             X           Y           Z
 ---------------------------------------------------------------------
      1          8           0        0.952775   -0.063581   -0.057834
      2          1           0        1.899597   -0.095136   -0.054041
      3          1           0        0.667138   -0.960393    0.049964
 ---------------------------------------------------------------------
                    Distance matrix (angstroms):
                    1          2          3
     1  O    0.000000
     2  H    0.947355   0.000000
     3  H    0.947355   1.509451   0.000000
 Stoichiometry    H2O
 Framework group  CS[SG(H2O)]
 Deg. of freedom     3
 Full point group                 CS      NOp   2
 Largest Abelian subgroup         CS      NOp   2
 Largest concise Abelian subgroup C1      NOp   1
                         Standard orientation:                         
 ---------------------------------------------------------------------
 Center     Atomic      Atomic             Coordinates (Angstroms)
 Number     Number       Type             X           Y           Z
 ---------------------------------------------------------------------
      1          8           0       -0.000000    0.114520   -0.000000
      2          1           0        0.754725   -0.458080    0.000000
      3          1           0       -0.754725   -0.458080    0.000000
 ---------------------------------------------------------------------
 Rotational constants (GHZ):         861.0818746         440.1738916         291.2769108
 Standard basis: 6-31G(d) (6D, 7F)
 There are    15 symmetry adapted cartesian basis functions of A'  symmetry.
 There are     4 symmetry adapted cartesian basis functions of A"  symmetry.
 There are    15 symmetry adapted basis functions of A'  symmetry.
 There are     4 symmetry adapted basis functions of A"  symmetry.
    19 basis functions,    36 primitive gaussians,    19 cartesian basis functions
     5 alpha electrons        5 beta electrons
       nuclear repulsion energy         9.2879190576 Hartrees.
 NAtoms=    3 NActive=    3 NUniq=    3 SFac= 1.00D+00 NAtFMM=   60 NAOKFM=F Big=F
 Integral buffers will be    131072 words long.
 Raffenetti 1 integral format.
 Two-electron integral symmetry is turned on.
 One-electron integrals computed using PRISM.
 NBasis=    19 RedAO= T EigKep=  2.19D-02  NBF=    15     4
 NBsUse=    19 1.00D-06 EigRej= -1.00D+00 NBFU=    15     4
 Initial guess from the checkpoint file:  "/scratch/mtmjea001/water/Gau-21391.chk"
 B after Tr=     0.000000   -0.000000   -0.000000
         Rot=    1.000000    0.000000    0.000000    0.000000 Ang=   0.00 deg.
 Initial guess orbital symmetries:
       Occupied  (A') (A') (A') (A') (A")
       Virtual   (A') (A') (A') (A') (A") (A') (A') (A') (A') (A")
                 (A") (A') (A') (A')
 Keep R1 ints in memory in symmetry-blocked form, NReq=2487617.
 Requested convergence on RMS density matrix=1.00D-08 within 128 cycles.
 Requested convergence on MAX density matrix=1.00D-06.
 Requested convergence on             energy=1.00D-06.
 No special actions if energy rises.
 SCF Done:  E(RHF) =  -76.0107460412     A.U. after    8 cycles
            NFock=  8  Conv=0.26D-08     -V/T= 2.0020
 Calling FoFJK, ICntrl=      2127 FMM=F ISym2X=1 I1Cent= 0 IOpClX= 0 NMat=1 NMatS=1 NMatT=0.
 ***** Axes restored to original set *****
 -------------------------------------------------------------------
 Center     Atomic                   Forces (Hartrees/Bohr)
 Number     Number              X              Y              Z
 -------------------------------------------------------------------
      1        8          -0.000145828    0.000204767   -0.000024613
      2        1          -0.000111603   -0.000231922    0.000027877
      3        1           0.000257431    0.000027155   -0.000003264
 -------------------------------------------------------------------
 Cartesian Forces:  Max     0.000257431 RMS     0.000148264

 GradGradGradGradGradGradGradGradGradGradGradGradGradGradGradGradGradGrad
 Berny optimization.
 Using GEDIIS/GDIIS optimizer.
 FormGI is forming the generalized inverse of G from B-inverse, IUseBI=4.
 Internal  Forces:  Max     0.000424653 RMS     0.000259382
 Search for a local minimum.
 Step number   3 out of a maximum of   20
 All quantities printed in internal units (Hartrees-Bohrs-Radians)
 Mixed Optimization -- En-DIIS/RFO-DIIS
 Update second derivatives using D2CorX and points    1    2    3
 DE= -8.25D-06 DEPred=-1.08D-05 R= 7.67D-01
 TightC=F SS=  1.41D+00  RLast= 1.15D-02 DXNew= 5.0454D-01 3.4534D-02
 Trust test= 7.67D-01 RLast= 1.15D-02 DXMaxT set to 3.00D-01
 The second derivative matrix:
                          R1        R2        A1
           R1           0.55080
           R2           0.01497   0.55079
           A1           0.03072   0.03071   0.19194
 ITU=  1  1  0
 Use linear search instead of GDIIS.
     Eigenvalues ---    0.18696   0.53582   0.57074
 RFO step:  Lambda= 0.00000000D+00 EMin= 1.86956135D-01
 Quartic linear search produced a step of -0.18914.
 Iteration  1 RMS(Cart)=  0.00124517 RMS(Int)=  0.00000089
 Iteration  2 RMS(Cart)=  0.00000075 RMS(Int)=  0.00000000
 ClnCor:  largest displacement from symmetrization is 1.42D-15 for atom     3.
 Variable       Old X    -DE/DX   Delta X   Delta X   Delta X     New X
                                 (Linear)    (Quad)   (Total)
    R1        1.79024  -0.00010  -0.00011   0.00005  -0.00006   1.79018
    R2        1.79024  -0.00010  -0.00011   0.00005  -0.00006   1.79018
    A1        1.84352  -0.00042  -0.00217  -0.00003  -0.00220   1.84132
         Item               Value     Threshold  Converged?
 Maximum Force            0.000425     0.000450     YES
 RMS     Force            0.000259     0.000300     YES
 Maximum Displacement     0.001310     0.001800     YES
 RMS     Displacement     0.001246     0.001200     NO 
 Predicted change in Energy=-4.720554D-07
 GradGradGradGradGradGradGradGradGradGradGradGradGradGradGradGradGradGrad

                          Input orientation:                          
 ---------------------------------------------------------------------
 Center     Atomic      Atomic             Coordinates (Angstroms)
 Number     Number       Type             X           Y           Z
 ---------------------------------------------------------------------
      1          8           0        0.952463   -0.063143   -0.057886
      2          1           0        1.899215   -0.095732   -0.053969
      3          1           0        0.667831   -0.960235    0.049945
 ---------------------------------------------------------------------
                    Distance matrix (angstroms):
                    1          2          3
     1  O    0.000000
     2  H    0.947321   0.000000
     3  H    0.947321   1.508135   0.000000
 Stoichiometry    H2O
 Framework group  CS[SG(H2O)]
 Deg. of freedom     3
 Full point group                 CS      NOp   2
 Largest Abelian subgroup         CS      NOp   2
 Largest concise Abelian subgroup C1      NOp   1
                         Standard orientation:                         
 ---------------------------------------------------------------------
 Center     Atomic      Atomic             Coordinates (Angstroms)
 Number     Number       Type             X           Y           Z
 ---------------------------------------------------------------------
      1          8           0        0.000000    0.114682    0.000000
      2          1           0        0.754067   -0.458728   -0.000000
      3          1           0       -0.754067   -0.458728   -0.000000
 ---------------------------------------------------------------------
 Rotational constants (GHZ):         858.6501997         440.9422872         291.3337733
 Standard basis: 6-31G(d) (6D, 7F)
 There are    15 symmetry adapted cartesian basis functions of A'  symmetry.
 There are     4 symmetry adapted cartesian basis functions of A"  symmetry.
 There are    15 symmetry adapted basis functions of A'  symmetry.
 There are     4 symmetry adapted basis functions of A"  symmetry.
    19 basis functions,    36 primitive gaussians,    19 cartesian basis functions
     5 alpha electrons        5 beta electrons
       nuclear repulsion energy         9.2885440625 Hartrees.
 NAtoms=    3 NActive=    3 NUniq=    3 SFac= 1.00D+00 NAtFMM=   60 NAOKFM=F Big=F
 Integral buffers will be    131072 words long.
 Raffenetti 1 integral format.
 Two-electron integral symmetry is turned on.
 One-electron integrals computed using PRISM.
 NBasis=    19 RedAO= T EigKep=  2.19D-02  NBF=    15     4
 NBsUse=    19 1.00D-06 EigRej= -1.00D+00 NBFU=    15     4
 Initial guess from the checkpoint file:  "/scratch/mtmjea001/water/Gau-21391.chk"
 B after Tr=    -0.000000    0.000000    0.000000
         Rot=    1.000000   -0.000000    0.000000    0.000000 Ang=   0.00 deg.
 Initial guess orbital symmetries:
       Occupied  (A') (A') (A') (A') (A")
       Virtual   (A') (A') (A') (A') (A") (A') (A') (A') (A') (A")
                 (A") (A') (A') (A')
 Keep R1 ints in memory in symmetry-blocked form, NReq=2487617.
 Requested convergence on RMS density matrix=1.00D-08 within 128 cycles.
 Requested convergence on MAX density matrix=1.00D-06.
 Requested convergence on             energy=1.00D-06.
 No special actions if energy rises.
 SCF Done:  E(RHF) =  -76.0107465155     A.U. after    7 cycles
            NFock=  7  Conv=0.37D-08     -V/T= 2.0020
 Calling FoFJK, ICntrl=      2127 FMM=F ISym2X=1 I1Cent= 0 IOpClX= 0 NMat=1 NMatS=1 NMatT=0.
 ***** Axes restored to original set *****
 -------------------------------------------------------------------
 Center     Atomic                   Forces (Hartrees/Bohr)
 Number     Number              X              Y              Z
 -------------------------------------------------------------------
      1        8           0.000001799   -0.000002489    0.000000299
      2        1          -0.000002380    0.000000215   -0.000000026
      3        1           0.000000581    0.000002274   -0.000000273
 -------------------------------------------------------------------
 Cartesian Forces:  Max     0.000002489 RMS     0.000001521

 GradGradGradGradGradGradGradGradGradGradGradGradGradGradGradGradGradGrad
 Berny optimization.
 Using GEDIIS/GDIIS optimizer.
 FormGI is forming the generalized inverse of G from B-inverse, IUseBI=4.
 Internal  Forces:  Max     0.000002386 RMS     0.000001942
 Search for a local minimum.
 Step number   4 out of a maximum of   20
 All quantities printed in internal units (Hartrees-Bohrs-Radians)
 Mixed Optimization -- En-DIIS/RFO-DIIS
 Swapping is turned off.
 Update second derivatives using D2CorX and points    1    2    3    4
 DE= -4.74D-07 DEPred=-4.72D-07 R= 1.00D+00
 Trust test= 1.00D+00 RLast= 2.20D-03 DXMaxT set to 3.00D-01
 The second derivative matrix:
                          R1        R2        A1
           R1           0.55059
           R2           0.01477   0.55059
           A1           0.02960   0.02960   0.19122
 ITU=  0  1  1  0
     Eigenvalues ---    0.18659   0.53582   0.56998
 En-DIIS/RFO-DIIS/Sim-DIIS IScMMF=       -3 using points:     4    3
 RFO step:  Lambda= 0.00000000D+00.
 DidBck=F Rises=F RFO-DIIS coefs:    0.99894    0.00106
 Iteration  1 RMS(Cart)=  0.00000269 RMS(Int)=  0.00000000
 Iteration  2 RMS(Cart)=  0.00000000 RMS(Int)=  0.00000000
 ClnCor:  largest displacement from symmetrization is 9.44D-16 for atom     3.
 Variable       Old X    -DE/DX   Delta X   Delta X   Delta X     New X
                                 (Linear)    (Quad)   (Total)
    R1        1.79018  -0.00000   0.00000  -0.00000  -0.00000   1.79017
    R2        1.79018  -0.00000   0.00000  -0.00000  -0.00000   1.79017
    A1        1.84132   0.00000   0.00000   0.00000   0.00000   1.84132
         Item               Value     Threshold  Converged?
 Maximum Force            0.000002     0.000450     YES
 RMS     Force            0.000002     0.000300     YES
 Maximum Displacement     0.000003     0.001800     YES
 RMS     Displacement     0.000003     0.001200     YES
 Predicted change in Energy=-1.059182D-11
 Optimization completed.
    -- Stationary point found.
                           ----------------------------
                           !   Optimized Parameters   !
                           ! (Angstroms and Degrees)  !
 --------------------------                            --------------------------
 ! Name  Definition              Value          Derivative Info.                !
 --------------------------------------------------------------------------------
 ! R1    R(1,2)                  0.9473         -DE/DX =    0.0                 !
 ! R2    R(1,3)                  0.9473         -DE/DX =    0.0                 !
 ! A1    A(2,1,3)              105.4996         -DE/DX =    0.0                 !
 --------------------------------------------------------------------------------
 GradGradGradGradGradGradGradGradGradGradGradGradGradGradGradGradGradGrad

                          Input orientation:                          
 ---------------------------------------------------------------------
 Center     Atomic      Atomic             Coordinates (Angstroms)
 Number     Number       Type             X           Y           Z
 ---------------------------------------------------------------------
      1          8           0        0.952463   -0.063143   -0.057886
      2          1           0        1.899215   -0.095732   -0.053969
      3          1           0        0.667831   -0.960235    0.049945
 ---------------------------------------------------------------------
                    Distance matrix (angstroms):
                    1          2          3
     1  O    0.000000
     2  H    0.947321   0.000000
     3  H    0.947321   1.508135   0.000000
 Stoichiometry    H2O
 Framework group  CS[SG(H2O)]
 Deg. of freedom     3
 Full point group                 CS      NOp   2
 Largest Abelian subgroup         CS      NOp   2
 Largest concise Abelian subgroup C1      NOp   1
                         Standard orientation:                         
 ---------------------------------------------------------------------
 Center     Atomic      Atomic             Coordinates (Angstroms)
 Number     Number       Type             X           Y           Z
 ---------------------------------------------------------------------
      1          8           0       -0.000000    0.114682   -0.000000
      2          1           0        0.754067   -0.458728   -0.000000
      3          1           0       -0.754067   -0.458728    0.000000
 ---------------------------------------------------------------------
 Rotational constants (GHZ):         858.6501997         440.9422872         291.3337733

 **********************************************************************

            Population analysis using the SCF Density.

 **********************************************************************

 Orbital symmetries:
       Occupied  (A') (A') (A') (A') (A")
       Virtual   (A') (A') (A') (A') (A") (A') (A') (A') (A') (A")
                 (A") (A') (A') (A')
 The electronic state is 1-A'.
 Alpha  occ. eigenvalues --  -20.55788  -1.34613  -0.71427  -0.57080  -0.49821
 Alpha virt. eigenvalues --    0.21302   0.30687   1.03170   1.13339   1.16803
 Alpha virt. eigenvalues --    1.17846   1.38511   1.43120   2.02057   2.03058
 Alpha virt. eigenvalues --    2.06723   2.63563   2.96579   3.97771
          Condensed to atoms (all electrons):
               1          2          3
     1  O    8.332906   0.267926   0.267926
     2  H    0.267926   0.316178  -0.018482
     3  H    0.267926  -0.018482   0.316178
 Mulliken charges:
               1
     1  O   -0.868757
     2  H    0.434379
     3  H    0.434379
 Sum of Mulliken charges =  -0.00000
 Mulliken charges with hydrogens summed into heavy atoms:
               1
     1  O   -0.000000
 Electronic spatial extent (au):  <R**2>=             18.8110
 Charge=             -0.0000 electrons
 Dipole moment (field-independent basis, Debye):
    X=             -0.0000    Y=             -2.1989    Z=             -0.0000  Tot=              2.1989
 Quadrupole moment (field-independent basis, Debye-Ang):
   XX=             -4.1055   YY=             -6.0010   ZZ=             -7.2057
   XY=             -0.0000   XZ=             -0.0000   YZ=             -0.0000
 Traceless Quadrupole moment (field-independent basis, Debye-Ang):
   XX=              1.6652   YY=             -0.2302   ZZ=             -1.4350
   XY=             -0.0000   XZ=             -0.0000   YZ=             -0.0000
 Octapole moment (field-independent basis, Debye-Ang**2):
  XXX=             -0.0000  YYY=             -1.4303  ZZZ=             -0.0000  XYY=              0.0000
  XXY=             -1.3548  XXZ=              0.0000  XZZ=             -0.0000  YZZ=             -0.3873
  YYZ=              0.0000  XYZ=              0.0000
 Hexadecapole moment (field-independent basis, Debye-Ang**3):
 XXXX=             -5.3635 YYYY=             -5.9893 ZZZZ=             -5.1841 XXXY=              0.0000
 XXXZ=             -0.0000 YYYX=              0.0000 YYYZ=             -0.0000 ZZZX=              0.0000
 ZZZY=              0.0000 XXYY=             -1.5811 XXZZ=             -2.0169 YYZZ=             -1.9086
 XXYZ=             -0.0000 YYXZ=             -0.0000 ZZXY=              0.0000
 N-N= 9.288544062541D+00 E-N=-1.990836670106D+02  KE= 7.585964710967D+01
 Symmetry A'   KE= 7.130805091343D+01
 Symmetry A"   KE= 4.551596196236D+00

 Test job not archived.
 1\1\GINC-ASTERIX\FOpt\RHF\6-31G(d)\H2O1\MTMJEA001\25-Feb-2020\0\\#g2\\
 water\\0,1\O,0.9524632576,-0.0631429388,-0.0578863117\H,1.8992154794,-
 0.0957321167,-0.0539691278\H,0.667831263,-0.9602349445,0.0499454395\\V
 ersion=ES64L-G16RevC.01\State=1-A'\HF=-76.0107465\RMSD=3.695e-09\RMSF=
 1.521e-06\Dipole=0.4994748,-0.7013112,0.0842986\Quadrupole=0.7682998,0
 .2791216,-1.0474214,0.6595648,-0.0792808,-0.16179\PG=CS [SG(H2O1)]\\@


 You don't have to suffer to be a poet.
 Adolescence is enough suffering for anyone.
                             -- John Ciardi
 Job cpu time:       0 days  0 hours  0 minutes 41.8 seconds.
 Elapsed time:       0 days  0 hours  0 minutes  4.4 seconds.
 File lengths (MBytes):  RWF=      6 Int=      0 D2E=      0 Chk=      1 Scr=      1
 Normal termination of Gaussian 16 at Tue Feb 25 10:57:48 2020.
 Link1:  Proceeding to internal job step number  2.
 --------------------------------------------------------------
 #N Geom=AllCheck Guess=TCheck SCRF=Check Test HF/6-31G(d) Freq
 --------------------------------------------------------------
 1/10=4,29=7,30=1,38=1,40=1/1,3;
 2/12=2,40=1/2;
 3/5=1,6=6,7=1,11=9,14=-4,25=1,30=1,70=2,71=2,116=-2,140=1/1,2,3;
 4/5=101/1;
 5/5=2,38=6,98=1/2;
 8/6=4,10=90,11=11/1;
 10/13=10,15=4/2;
 11/6=3,8=1,9=11,15=111,16=1/1,2,10;
 10/6=1/2;
 6/7=2,8=2,9=2,10=2,28=1/1;
 7/8=1,10=1,25=1/1,2,3,16;
 1/10=4,30=1/3;
 99//99;
 Structure from the checkpoint file:  "/scratch/mtmjea001/water/Gau-21391.chk"
 -----
 water
 -----
 Charge =  0 Multiplicity = 1
 Redundant internal coordinates found in file.  (old form).
 O,0,0.9524632576,-0.0631429388,-0.0578863117
 H,0,1.8992154794,-0.0957321167,-0.0539691278
 H,0,0.667831263,-0.9602349445,0.0499454395
 Recover connectivity data from disk.

 GradGradGradGradGradGradGradGradGradGradGradGradGradGradGradGradGradGrad
 Berny optimization.
 Initialization pass.
                           ----------------------------
                           !    Initial Parameters    !
                           ! (Angstroms and Degrees)  !
 --------------------------                            --------------------------
 ! Name  Definition              Value          Derivative Info.                !
 --------------------------------------------------------------------------------
 ! R1    R(1,2)                  0.9473         calculate D2E/DX2 analytically  !
 ! R2    R(1,3)                  0.9473         calculate D2E/DX2 analytically  !
 ! A1    A(2,1,3)              105.4996         calculate D2E/DX2 analytically  !
 --------------------------------------------------------------------------------
 Trust Radius=3.00D-01 FncErr=1.00D-07 GrdErr=1.00D-07 EigMax=2.50D+02 EigMin=1.00D-04
 Number of steps in this run=      2 maximum allowed number of steps=      2.
 GradGradGradGradGradGradGradGradGradGradGradGradGradGradGradGradGradGrad

                          Input orientation:                          
 ---------------------------------------------------------------------
 Center     Atomic      Atomic             Coordinates (Angstroms)
 Number     Number       Type             X           Y           Z
 ---------------------------------------------------------------------
      1          8           0        0.952463   -0.063143   -0.057886
      2          1           0        1.899215   -0.095732   -0.053969
      3          1           0        0.667831   -0.960235    0.049945
 ---------------------------------------------------------------------
                    Distance matrix (angstroms):
                    1          2          3
     1  O    0.000000
     2  H    0.947321   0.000000
     3  H    0.947321   1.508135   0.000000
 Stoichiometry    H2O
 Framework group  CS[SG(H2O)]
 Deg. of freedom     3
 Full point group                 CS      NOp   2
 Largest Abelian subgroup         CS      NOp   2
 Largest concise Abelian subgroup C1      NOp   1
                         Standard orientation:                         
 ---------------------------------------------------------------------
 Center     Atomic      Atomic             Coordinates (Angstroms)
 Number     Number       Type             X           Y           Z
 ---------------------------------------------------------------------
      1          8           0        0.000000    0.114682   -0.000000
      2          1           0        0.754067   -0.458728   -0.000000
      3          1           0       -0.754067   -0.458728    0.000000
 ---------------------------------------------------------------------
 Rotational constants (GHZ):         858.6501997         440.9422872         291.3337733
 Standard basis: 6-31G(d) (6D, 7F)
 There are    15 symmetry adapted cartesian basis functions of A'  symmetry.
 There are     4 symmetry adapted cartesian basis functions of A"  symmetry.
 There are    15 symmetry adapted basis functions of A'  symmetry.
 There are     4 symmetry adapted basis functions of A"  symmetry.
    19 basis functions,    36 primitive gaussians,    19 cartesian basis functions
     5 alpha electrons        5 beta electrons
       nuclear repulsion energy         9.2885440625 Hartrees.
 NAtoms=    3 NActive=    3 NUniq=    3 SFac= 1.00D+00 NAtFMM=   60 NAOKFM=F Big=F
 Integral buffers will be    131072 words long.
 Raffenetti 1 integral format.
 Two-electron integral symmetry is turned on.
 One-electron integrals computed using PRISM.
 NBasis=    19 RedAO= T EigKep=  2.19D-02  NBF=    15     4
 NBsUse=    19 1.00D-06 EigRej= -1.00D+00 NBFU=    15     4
 Initial guess from the checkpoint file:  "/scratch/mtmjea001/water/Gau-21391.chk"
 B after Tr=     0.000000   -0.000000    0.000000
         Rot=    1.000000    0.000000    0.000000   -0.000000 Ang=   0.00 deg.
 Initial guess orbital symmetries:
       Occupied  (A') (A') (A') (A') (A")
       Virtual   (A') (A') (A') (A') (A") (A') (A') (A') (A') (A")
                 (A") (A') (A') (A')
 Keep R1 ints in memory in symmetry-blocked form, NReq=2487617.
 Requested convergence on RMS density matrix=1.00D-08 within 128 cycles.
 Requested convergence on MAX density matrix=1.00D-06.
 Requested convergence on             energy=1.00D-06.
 No special actions if energy rises.
 SCF Done:  E(RHF) =  -76.0107465155     A.U. after    1 cycles
            NFock=  1  Conv=0.34D-09     -V/T= 2.0020
 Range of M.O.s used for correlation:     1    19
 NBasis=    19 NAE=     5 NBE=     5 NFC=     0 NFV=     0
 NROrb=     19 NOA=     5 NOB=     5 NVA=    14 NVB=    14
          Differentiating once with respect to electric field.
                with respect to dipole field.
          Electric field/nuclear overlap derivatives assumed to be zero.
 Keep R1 ints in memory in symmetry-blocked form, NReq=2488064.
          There are     3 degrees of freedom in the 1st order CPHF.  IDoFFX=0 NUNeed=     3.
      3 vectors produced by pass  0 Test12= 2.33D-15 3.33D-08 XBig12= 1.15D+00 7.36D-01.
 AX will form     3 AO Fock derivatives at one time.
      3 vectors produced by pass  1 Test12= 2.33D-15 3.33D-08 XBig12= 5.12D-02 1.20D-01.
      3 vectors produced by pass  2 Test12= 2.33D-15 3.33D-08 XBig12= 6.15D-03 3.39D-02.
      3 vectors produced by pass  3 Test12= 2.33D-15 3.33D-08 XBig12= 2.39D-04 7.94D-03.
      3 vectors produced by pass  4 Test12= 2.33D-15 3.33D-08 XBig12= 2.26D-06 9.06D-04.
      3 vectors produced by pass  5 Test12= 2.33D-15 3.33D-08 XBig12= 1.88D-08 6.62D-05.
      3 vectors produced by pass  6 Test12= 2.33D-15 3.33D-08 XBig12= 2.29D-10 7.07D-06.
      2 vectors produced by pass  7 Test12= 2.33D-15 3.33D-08 XBig12= 1.31D-12 5.11D-07.
      1 vectors produced by pass  8 Test12= 2.33D-15 3.33D-08 XBig12= 6.60D-15 4.09D-08.
 InvSVY:  IOpt=1 It=  1 EMax= 2.13D-16
 Solved reduced A of dimension    24 with     3 vectors.
 End of Minotr F.D. properties file   721 does not exist.
 End of Minotr F.D. properties file   722 does not exist.
 End of Minotr F.D. properties file   788 does not exist.
 Symmetrizing basis deriv contribution to polar:
 IMax=3 JMax=2 DiffMx= 0.00D+00
 G2DrvN: will do     4 centers at a time, making    1 passes.
 PxScal for G2LodP:  IOpCl= 0 ISclPx=1 IMOff=     1 NMtTot=     4 NTT=     190 ScalPx= 1.00D+00
 Calling FoFCou, ICntrl=  3107 FMM=F I1Cent=   0 AccDes= 0.00D+00.
 End of G2Drv F.D. properties file   721 does not exist.
 End of G2Drv F.D. properties file   722 does not exist.
 End of G2Drv F.D. properties file   788 does not exist.
          IDoAtm=111
          Differentiating once with respect to electric field.
                with respect to dipole field.
          Differentiating once with respect to nuclear coordinates.
 Keep R1 ints in memory in symmetry-blocked form, NReq=2488133.
          There are    12 degrees of freedom in the 1st order CPHF.  IDoFFX=5 NUNeed=    12.
 Will reuse    3 saved solutions.
      6 vectors produced by pass  0 Test12= 5.83D-16 8.33D-09 XBig12= 3.61D-02 1.07D-01.
 AX will form     6 AO Fock derivatives at one time.
      6 vectors produced by pass  1 Test12= 5.83D-16 8.33D-09 XBig12= 4.24D-03 3.98D-02.
      6 vectors produced by pass  2 Test12= 5.83D-16 8.33D-09 XBig12= 2.02D-04 8.97D-03.
      6 vectors produced by pass  3 Test12= 5.83D-16 8.33D-09 XBig12= 1.17D-06 5.30D-04.
      6 vectors produced by pass  4 Test12= 5.83D-16 8.33D-09 XBig12= 6.22D-09 3.66D-05.
      6 vectors produced by pass  5 Test12= 5.83D-16 8.33D-09 XBig12= 1.57D-11 1.44D-06.
      3 vectors produced by pass  6 Test12= 5.83D-16 8.33D-09 XBig12= 6.90D-14 1.15D-07.
 InvSVY:  IOpt=1 It=  1 EMax= 4.44D-16
 Solved reduced A of dimension    39 with     6 vectors.
 Isotropic polarizability for W=    0.000000        4.75 Bohr**3.
 End of Minotr F.D. properties file   721 does not exist.
 End of Minotr F.D. properties file   722 does not exist.
 End of Minotr F.D. properties file   788 does not exist.

 **********************************************************************

            Population analysis using the SCF Density.

 **********************************************************************

 Orbital symmetries:
       Occupied  (A') (A') (A') (A') (A")
       Virtual   (A') (A') (A') (A') (A") (A') (A') (A') (A') (A")
                 (A") (A') (A') (A')
 The electronic state is 1-A'.
 Alpha  occ. eigenvalues --  -20.55788  -1.34613  -0.71427  -0.57080  -0.49821
 Alpha virt. eigenvalues --    0.21302   0.30687   1.03170   1.13339   1.16803
 Alpha virt. eigenvalues --    1.17846   1.38511   1.43120   2.02057   2.03058
 Alpha virt. eigenvalues --    2.06723   2.63563   2.96579   3.97771
          Condensed to atoms (all electrons):
               1          2          3
     1  O    8.332906   0.267926   0.267926
     2  H    0.267926   0.316178  -0.018482
     3  H    0.267926  -0.018482   0.316178
 Mulliken charges:
               1
     1  O   -0.868757
     2  H    0.434379
     3  H    0.434379
 Sum of Mulliken charges =  -0.00000
 Mulliken charges with hydrogens summed into heavy atoms:
               1
     1  O   -0.000000
 APT charges:
               1
     1  O   -0.600499
     2  H    0.300249
     3  H    0.300249
 Sum of APT charges =  -0.00000
 APT charges with hydrogens summed into heavy atoms:
               1
     1  O   -0.000000
 Electronic spatial extent (au):  <R**2>=             18.8110
 Charge=             -0.0000 electrons
 Dipole moment (field-independent basis, Debye):
    X=             -0.0000    Y=             -2.1989    Z=              0.0000  Tot=              2.1989
 Quadrupole moment (field-independent basis, Debye-Ang):
   XX=             -4.1055   YY=             -6.0010   ZZ=             -7.2057
   XY=             -0.0000   XZ=             -0.0000   YZ=              0.0000
 Traceless Quadrupole moment (field-independent basis, Debye-Ang):
   XX=              1.6652   YY=             -0.2302   ZZ=             -1.4350
   XY=             -0.0000   XZ=             -0.0000   YZ=              0.0000
 Octapole moment (field-independent basis, Debye-Ang**2):
  XXX=             -0.0000  YYY=             -1.4303  ZZZ=             -0.0000  XYY=              0.0000
  XXY=             -1.3548  XXZ=              0.0000  XZZ=             -0.0000  YZZ=             -0.3873
  YYZ=              0.0000  XYZ=              0.0000
 Hexadecapole moment (field-independent basis, Debye-Ang**3):
 XXXX=             -5.3635 YYYY=             -5.9893 ZZZZ=             -5.1841 XXXY=              0.0000
 XXXZ=              0.0000 YYYX=              0.0000 YYYZ=              0.0000 ZZZX=              0.0000
 ZZZY=              0.0000 XXYY=             -1.5811 XXZZ=             -2.0169 YYZZ=             -1.9086
 XXYZ=             -0.0000 YYXZ=             -0.0000 ZZXY=              0.0000
 N-N= 9.288544062541D+00 E-N=-1.990836670009D+02  KE= 7.585964710192D+01
 Symmetry A'   KE= 7.130805092224D+01
 Symmetry A"   KE= 4.551596179678D+00
  Exact polarizability:       6.679      -0.000       4.808      -0.000      -0.000       2.778
 Approx polarizability:       5.340      -0.000       4.005      -0.000      -0.000       2.363
 Calling FoFJK, ICntrl=    100127 FMM=F ISym2X=1 I1Cent= 0 IOpClX= 0 NMat=1 NMatS=1 NMatT=0.
 Full mass-weighted force constant matrix:
 Low frequencies ---   -0.0028    0.0006    0.0017    5.7700    6.0199    6.4817
 Low frequencies --- 1826.5605 4070.4304 4188.6737
 Diagonal vibrational polarizability:
        0.0891301       0.8948275       0.0000000
 Diagonal vibrational hyperpolarizability:
        0.0000001      -7.1742217      -0.0000000
 Harmonic frequencies (cm**-1), IR intensities (KM/Mole), Raman scattering
 activities (A**4/AMU), depolarization ratios for plane and unpolarized
 incident light, reduced masses (AMU), force constants (mDyne/A),
 and normal coordinates:
                      1                      2                      3
                     A'                     A'                     A'
 Frequencies --   1826.5605              4070.4304              4188.6737
 Red. masses --      1.0823                 1.0455                 1.0828
 Frc consts  --      2.1275                10.2062                11.1936
 IR Inten    --    107.2699                18.2086                58.1091
 Raman Activ --      5.7237                75.5374                39.0870
 Depolar (P) --      0.5300                 0.1830                 0.7500
 Depolar (U) --      0.6928                 0.3094                 0.8571
  Atom  AN      X      Y      Z        X      Y      Z        X      Y      Z
     1   8    -0.00  -0.07   0.00    -0.00   0.05  -0.00    -0.07  -0.00   0.00
     2   1     0.43   0.56  -0.00     0.58  -0.40  -0.00     0.56  -0.43  -0.00
     3   1    -0.43   0.56  -0.00    -0.58  -0.40   0.00     0.56   0.43  -0.00

 -------------------
 - Thermochemistry -
 -------------------
 Temperature   298.150 Kelvin.  Pressure   1.00000 Atm.
 Atom     1 has atomic number  8 and mass  15.99491
 Atom     2 has atomic number  1 and mass   1.00783
 Atom     3 has atomic number  1 and mass   1.00783
 Molecular mass:    18.01056 amu.
 Principal axes and moments of inertia in atomic units:
                           1         2         3
     Eigenvalues --     2.10184   4.09292   6.19475
           X            1.00000   0.00000   0.00000
           Y           -0.00000   1.00000   0.00000
           Z            0.00000  -0.00000   1.00000
 This molecule is an asymmetric top.
 Rotational symmetry number  1.
 Rotational temperatures (Kelvin)     41.20871    21.16189    13.98182
 Rotational constants (GHZ):         858.65020   440.94229   291.33377
 Zero-point vibrational energy      60325.7 (Joules/Mol)
                                   14.41818 (Kcal/Mol)
 Vibrational temperatures:   2628.01  5856.44  6026.57
          (Kelvin)
 
 Zero-point correction=                           0.022977 (Hartree/Particle)
 Thermal correction to Energy=                    0.025811
 Thermal correction to Enthalpy=                  0.026755
 Thermal correction to Gibbs Free Energy=         0.004726
 Sum of electronic and zero-point Energies=            -75.987770
 Sum of electronic and thermal Energies=               -75.984936
 Sum of electronic and thermal Enthalpies=             -75.983992
 Sum of electronic and thermal Free Energies=          -76.006021
 
                     E (Thermal)             CV                S
                      KCal/Mol        Cal/Mol-Kelvin    Cal/Mol-Kelvin
 Total                   16.196              5.985             46.364
 Electronic               0.000              0.000              0.000
 Translational            0.889              2.981             34.608
 Rotational               0.889              2.981             11.753
 Vibrational             14.419              0.023              0.003
                       Q            Log10(Q)             Ln(Q)
 Total Bot       0.670474D-02         -2.173618         -5.004940
 Total V=0       0.248304D+09          8.394983         19.330163
 Vib (Bot)       0.270062D-10        -10.568536        -24.334954
 Vib (V=0)       0.100015D+01          0.000065          0.000149
 Electronic      0.100000D+01          0.000000          0.000000
 Translational   0.300431D+07          6.477745         14.915559
 Rotational      0.826368D+02          1.917174          4.414455
 ***** Axes restored to original set *****
 -------------------------------------------------------------------
 Center     Atomic                   Forces (Hartrees/Bohr)
 Number     Number              X              Y              Z
 -------------------------------------------------------------------
      1        8           0.000001799   -0.000002490    0.000000299
      2        1          -0.000002381    0.000000215   -0.000000026
      3        1           0.000000582    0.000002275   -0.000000273
 -------------------------------------------------------------------
 Cartesian Forces:  Max     0.000002490 RMS     0.000001521
 FormGI is forming the generalized inverse of G from B-inverse, IUseBI=4.

 GradGradGradGradGradGradGradGradGradGradGradGradGradGradGradGradGradGrad
 Berny optimization.
 Internal  Forces:  Max     0.000002387 RMS     0.000001943
 Search for a local minimum.
 Step number   1 out of a maximum of    2
 All quantities printed in internal units (Hartrees-Bohrs-Radians)
 Second derivative matrix not updated -- analytic derivatives used.
 The second derivative matrix:
                          R1        R2        A1
           R1           0.61284
           R2          -0.00684   0.61284
           A1           0.02846   0.02846   0.19149
 ITU=  0
     Eigenvalues ---    0.18762   0.60986   0.61968
 Angle between quadratic step and forces=  19.15 degrees.
 Linear search not attempted -- first point.
 Iteration  1 RMS(Cart)=  0.00000250 RMS(Int)=  0.00000000
 Iteration  2 RMS(Cart)=  0.00000000 RMS(Int)=  0.00000000
 ClnCor:  largest displacement from symmetrization is 1.80D-15 for atom     3.
 Variable       Old X    -DE/DX   Delta X   Delta X   Delta X     New X
                                 (Linear)    (Quad)   (Total)
    R1        1.79018  -0.00000   0.00000  -0.00000  -0.00000   1.79017
    R2        1.79018  -0.00000   0.00000  -0.00000  -0.00000   1.79017
    A1        1.84132   0.00000   0.00000   0.00000   0.00000   1.84132
         Item               Value     Threshold  Converged?
 Maximum Force            0.000002     0.000450     YES
 RMS     Force            0.000002     0.000300     YES
 Maximum Displacement     0.000002     0.001800     YES
 RMS     Displacement     0.000003     0.001200     YES
 Predicted change in Energy=-9.862735D-12
 Optimization completed.
    -- Stationary point found.
                           ----------------------------
                           !   Optimized Parameters   !
                           ! (Angstroms and Degrees)  !
 --------------------------                            --------------------------
 ! Name  Definition              Value          Derivative Info.                !
 --------------------------------------------------------------------------------
 ! R1    R(1,2)                  0.9473         -DE/DX =    0.0                 !
 ! R2    R(1,3)                  0.9473         -DE/DX =    0.0                 !
 ! A1    A(2,1,3)              105.4996         -DE/DX =    0.0                 !
 --------------------------------------------------------------------------------
 GradGradGradGradGradGradGradGradGradGradGradGradGradGradGradGradGradGrad


 ----------------------------------------------------------------------

 Electric dipole moment (input orientation):
 (Debye = 10**-18 statcoulomb cm , SI units = C m)
                  (au)            (Debye)         (10**-30 SI)
   Tot        0.865112D+00      0.219890D+01      0.733473D+01
   x          0.499475D+00      0.126954D+01      0.423472D+01
   y         -0.701311D+00     -0.178256D+01     -0.594596D+01
   z          0.842986D-01      0.214266D+00      0.714713D+00

 Dipole polarizability, Alpha (input orientation).
 (esu units = cm**3 , SI units = C**2 m**2 J**-1)
 Alpha(0;0):
               (au)            (10**-24 esu)      (10**-40 SI)
   iso        0.475484D+01      0.704595D+00      0.783967D+00
   aniso      0.337854D+01      0.500647D+00      0.557045D+00
   xx         0.605488D+01      0.897240D+00      0.998314D+00
   yx         0.875653D+00      0.129758D+00      0.144376D+00
   yy         0.539347D+01      0.799229D+00      0.889263D+00
   zx        -0.105255D+00     -0.155972D-01     -0.173542D-01
   zy        -0.314336D+00     -0.465798D-01     -0.518270D-01
   zz         0.281618D+01      0.417314D+00      0.464325D+00

 First dipole hyperpolarizability, Beta (input orientation).
 ||, _|_  parallel and perpendicular components, (z) with respect to z axis,
 vector components x,y,z.  Values do not include the 1/n! factor of 1/2.
 (esu units = statvolt**-1 cm**4 , SI units = C**3 m**3 J**-2)
 Beta(0;0,0):
               (au)            (10**-30 esu)      (10**-50 SI)
   || (z)     0.165347D+01      0.142847D-01      0.530161D-02
   _|_(z)     0.551155D+00      0.476155D-02      0.176720D-02
   x          0.489845D+02      0.423188D+00      0.157062D+00
   y         -0.687790D+02     -0.594197D+00     -0.220530D+00
   z          0.826733D+01      0.714233D-01      0.265081D-01
   ||         0.169687D+02      0.146596D+00      0.544077D-01
   xxx        0.234507D+02      0.202596D+00      0.751916D-01
   xxy       -0.249765D+01     -0.215777D-01     -0.800835D-02
   yxy       -0.717220D+01     -0.619622D-01     -0.229967D-01
   yyy       -0.199318D+02     -0.172196D+00     -0.639087D-01
   xxz        0.300218D+00      0.259365D-02      0.962609D-03
   yxz        0.880800D+00      0.760942D-02      0.282416D-02
   yyz        0.234335D+01      0.202447D-01      0.751362D-02
   zxz        0.496248D-01      0.428720D-03      0.159115D-03
   zyz       -0.496854D+00     -0.429243D-02     -0.159309D-02
   zzz        0.112211D+00      0.969414D-03      0.359788D-03

 ----------------------------------------------------------------------

 Dipole orientation:
     8          1.26546365          0.63107032          1.12524526
     1          2.48060721          1.37537974          2.20883397
     1          0.05032010         -0.11323910          2.20883392

 Electric dipole moment (dipole orientation):
 (Debye = 10**-18 statcoulomb cm , SI units = C m)
                  (au)            (Debye)         (10**-30 SI)
   Tot        0.865112D+00      0.219890D+01      0.733473D+01
   x          0.000000D+00      0.000000D+00      0.000000D+00
   y          0.000000D+00      0.000000D+00      0.000000D+00
   z          0.865112D+00      0.219890D+01      0.733473D+01

 Dipole polarizability, Alpha (dipole orientation).
 (esu units = cm**3 , SI units = C**2 m**2 J**-1)
 Alpha(0;0):
               (au)            (10**-24 esu)      (10**-40 SI)
   iso        0.475484D+01      0.704595D+00      0.783967D+00
   aniso      0.337854D+01      0.500647D+00      0.557045D+00
   xx         0.561445D+01      0.831976D+00      0.925699D+00
   yx         0.173717D+01      0.257422D+00      0.286420D+00
   yy         0.384246D+01      0.569393D+00      0.633535D+00
   zx         0.000000D+00      0.000000D+00      0.000000D+00
   zy         0.000000D+00      0.000000D+00      0.000000D+00
   zz         0.480761D+01      0.712414D+00      0.792668D+00

 First dipole hyperpolarizability, Beta (dipole orientation).
 ||, _|_  parallel and perpendicular components, (z) with respect to z axis,
 vector components x,y,z.  Values do not include the 1/n! factor of 1/2.
 (esu units = statvolt**-1 cm**4 , SI units = C**3 m**3 J**-2)
 Beta(0;0,0):
               (au)            (10**-30 esu)      (10**-50 SI)
   || (z)     0.169687D+02      0.146596D+00      0.544077D-01
   _|_(z)     0.565622D+01      0.488653D-01      0.181359D-01
   x          0.000000D+00      0.000000D+00      0.000000D+00
   y          0.000000D+00      0.000000D+00      0.000000D+00
   z          0.848433D+02      0.732980D+00      0.272038D+00
   ||         0.169687D+02      0.146596D+00      0.544077D-01
   xxx        0.000000D+00      0.000000D+00      0.000000D+00
   xxy        0.000000D+00      0.000000D+00      0.000000D+00
   yxy        0.000000D+00      0.000000D+00      0.000000D+00
   yyy        0.000000D+00      0.000000D+00      0.000000D+00
   xxz        0.137213D+02      0.118541D+00      0.439955D-01
   yxz        0.823971D+01      0.711847D-01      0.264195D-01
   yyz        0.531638D+01      0.459294D-01      0.170462D-01
   zxz        0.000000D+00      0.000000D+00      0.000000D+00
   zyz        0.000000D+00      0.000000D+00      0.000000D+00
   zzz        0.924342D+01      0.798559D-01      0.296377D-01

 ----------------------------------------------------------------------

 Test job not archived.
 1\1\GINC-ASTERIX\Freq\RHF\6-31G(d)\H2O1\MTMJEA001\25-Feb-2020\0\\#N Ge
 om=AllCheck Guess=TCheck SCRF=Check Test HF/6-31G(d) Freq\\water\\0,1\
 O,0.9524632576,-0.0631429388,-0.0578863117\H,1.8992154794,-0.095732116
 7,-0.0539691278\H,0.667831263,-0.9602349445,0.0499454395\\Version=ES64
 L-G16RevC.01\State=1-A'\HF=-76.0107465\RMSD=3.423e-10\RMSF=1.521e-06\Z
 eroPoint=0.0229768\Thermal=0.0258106\ETot=-75.9849359\HTot=-75.9839917
 \GTot=-76.0060209\Dipole=0.4994748,-0.7013112,0.0842986\DipoleDeriv=-0
 .5131718,-0.0326097,0.0039197,-0.0326098,-0.4943406,-0.0365456,0.00391
 97,-0.0365456,-0.7939838,0.1815858,0.0227163,-0.0027305,0.0625465,0.32
 11022,0.0093861,-0.0075182,0.0093861,0.3980601,0.3315861,0.0098934,-0.
 0011892,-0.0299367,0.1732383,0.0271595,0.0035984,0.0271595,0.3959237\P
 olar=6.054877,0.8756535,5.3934677,-0.1052551,-0.3143359,2.8161753\Pola
 rDeriv=-6.7482351,1.2815384,0.4967829,-0.1540422,-0.0387878,0.1787551,
 1.8346047,0.8671885,6.877464,-0.2341991,-0.6735846,-0.1854115,-0.22052
 17,-0.2341989,-0.4617234,-1.0530479,1.5771399,-0.3426706,7.5979028,0.3
 48012,0.2638188,-0.0418321,-0.0546887,-0.1845826,-0.7587545,1.2617413,
 -0.2899684,0.0476261,0.0438128,0.0434971,0.091203,0.047626,0.0409601,1
 .6522349,0.0197638,-0.0113342,-0.8496677,-1.6295504,-0.7606016,0.19587
 43,0.0934765,0.0058275,-1.0758502,-2.1289299,-6.5874956,0.186573,0.629
 7718,0.1419144,0.1293187,0.1865729,0.4207633,-0.599187,-1.5969038,0.35
 40049\HyperPolar=23.450749,-2.4976452,-7.1721994,-19.931844,0.3002185,
 0.8807998,2.3433481,0.0496248,-0.4968541,0.1122108\Quadrupole=0.768299
 8,0.2791216,-1.0474214,0.6595648,-0.0792808,-0.16179\PG=CS [SG(H2O1)]\
 NImag=0\\0.70159287,0.11750325,0.60910858,-0.01412412,-0.07321538,0.00
 880344,-0.59803497,-0.00804190,0.00096670,0.61327224,0.06410991,-0.060
 83703,0.00731252,-0.00327088,0.05847259,-0.00770605,0.00731253,-0.0008
 8041,0.00039311,-0.00702832,0.00084617,-0.10355790,-0.10946135,0.01315
 742,-0.01523727,-0.06083902,0.00731294,0.11879516,-0.18161316,-0.54827
 155,0.06590286,0.01131279,0.00236444,-0.00028420,0.17030037,0.54590710
 ,0.02183017,0.06590285,-0.00792303,-0.00135981,-0.00028420,0.00003424,
 -0.02047036,-0.06561866,0.00788880\\-0.00000180,0.00000249,-0.00000030
 ,0.00000238,-0.00000021,0.00000003,-0.00000058,-0.00000228,0.00000027\
 \\@


 "TIGER, TIGER BURNING BRIGHT
 IN THE FOREST OF THE NIGHT.
 WHAT IMMORTAL HAND OR EYE
 CAN FRAME THY FEARFUL SYMMETRYE?"
                     - WILLIAM BLAKE
 Job cpu time:       0 days  0 hours  0 minutes 20.7 seconds.
 Elapsed time:       0 days  0 hours  0 minutes  2.1 seconds.
 File lengths (MBytes):  RWF=      6 Int=      0 D2E=      0 Chk=      1 Scr=      1
 Normal termination of Gaussian 16 at Tue Feb 25 10:57:50 2020.
 Link1:  Proceeding to internal job step number  3.
 ----------------------------------------------------------------------
 #N Geom=AllCheck Guess=TCheck SCRF=Check Test MP2(Full)/6-31G(d) Opt=R
 CFC
 ----------------------------------------------------------------------
 1/10=5,18=20,19=15,29=7,38=1,40=1/1,3;
 2/9=110,12=2,40=1/2;
 3/5=1,6=6,7=1,11=9,14=-4,25=1,30=1,70=2,71=1,116=-2/1,2,3;
 4/5=101/1;
 5/5=2,38=6/2;
 8/6=4,10=90/1;
 9/15=2,16=-3/6;
 10/5=1/2;
 6/7=2,8=2,9=2,10=2/1;
 7/12=2,25=51/1,2,3,16;
 1/10=5,18=20,19=15/3(2);
 2/9=110/2;
 99//99;
 2/9=110/2;
 3/5=1,6=6,7=1,11=9,14=-2,25=1,30=1,70=5,71=1/1,2,3;
 4/5=5,16=3,69=1/1;
 5/5=2,38=5/2;
 8/6=4,10=90/1;
 9/15=2,16=-3/6;
 10/5=1/2;
 7/12=2/1,2,3,16;
 1/18=20,19=15/3(-8);
 2/9=110/2;
 6/7=2,8=2,9=2,10=2/1;
 99/9=10/99;
 Structure from the checkpoint file:  "/scratch/mtmjea001/water/Gau-21391.chk"
 -----
 water
 -----
 Charge =  0 Multiplicity = 1
 Redundant internal coordinates found in file.  (old form).
 O,0,0.9524632576,-0.0631429388,-0.0578863117
 H,0,1.8992154794,-0.0957321167,-0.0539691278
 H,0,0.667831263,-0.9602349445,0.0499454395
 Recover connectivity data from disk.

 GradGradGradGradGradGradGradGradGradGradGradGradGradGradGradGradGradGrad
 Berny optimization.
 Initialization pass.
 Cartesian force constants read from checkpoint file:
 "/scratch/mtmjea001/water/Gau-21391.chk"
 FormGI is forming the generalized inverse of G from B-inverse, IUseBI=4.
                           ----------------------------
                           !    Initial Parameters    !
                           ! (Angstroms and Degrees)  !
 --------------------------                            --------------------------
 ! Name  Definition              Value          Derivative Info.                !
 --------------------------------------------------------------------------------
 ! R1    R(1,2)                  0.9473         D2E/DX2 =    0.6128             !
 ! R2    R(1,3)                  0.9473         D2E/DX2 =    0.6128             !
 ! A1    A(2,1,3)              105.4996         D2E/DX2 =    0.1915             !
 --------------------------------------------------------------------------------
 Trust Radius=3.00D-01 FncErr=1.00D-07 GrdErr=1.00D-07 EigMax=2.50D+02 EigMin=1.00D-04
 Number of steps in this run=     20 maximum allowed number of steps=    100.
 GradGradGradGradGradGradGradGradGradGradGradGradGradGradGradGradGradGrad

                          Input orientation:                          
 ---------------------------------------------------------------------
 Center     Atomic      Atomic             Coordinates (Angstroms)
 Number     Number       Type             X           Y           Z
 ---------------------------------------------------------------------
      1          8           0        0.952463   -0.063143   -0.057886
      2          1           0        1.899215   -0.095732   -0.053969
      3          1           0        0.667831   -0.960235    0.049945
 ---------------------------------------------------------------------
                    Distance matrix (angstroms):
                    1          2          3
     1  O    0.000000
     2  H    0.947321   0.000000
     3  H    0.947321   1.508135   0.000000
 Stoichiometry    H2O
 Framework group  CS[SG(H2O)]
 Deg. of freedom     3
 Full point group                 CS      NOp   2
 Largest Abelian subgroup         CS      NOp   2
 Largest concise Abelian subgroup C1      NOp   1
                         Standard orientation:                         
 ---------------------------------------------------------------------
 Center     Atomic      Atomic             Coordinates (Angstroms)
 Number     Number       Type             X           Y           Z
 ---------------------------------------------------------------------
      1          8           0        0.000000    0.114682    0.000000
      2          1           0        0.754067   -0.458728   -0.000000
      3          1           0       -0.754067   -0.458728   -0.000000
 ---------------------------------------------------------------------
 Rotational constants (GHZ):         858.6501997         440.9422872         291.3337733
 Standard basis: 6-31G(d) (6D, 7F)
 There are    15 symmetry adapted cartesian basis functions of A'  symmetry.
 There are     4 symmetry adapted cartesian basis functions of A"  symmetry.
 There are    15 symmetry adapted basis functions of A'  symmetry.
 There are     4 symmetry adapted basis functions of A"  symmetry.
    19 basis functions,    36 primitive gaussians,    19 cartesian basis functions
     5 alpha electrons        5 beta electrons
       nuclear repulsion energy         9.2885440625 Hartrees.
 NAtoms=    3 NActive=    3 NUniq=    3 SFac= 1.00D+00 NAtFMM=   60 NAOKFM=F Big=F
 Integral buffers will be    131072 words long.
 Raffenetti 1 integral format.
 Two-electron integral symmetry is turned on.
 One-electron integrals computed using PRISM.
 NBasis=    19 RedAO= T EigKep=  2.19D-02  NBF=    15     4
 NBsUse=    19 1.00D-06 EigRej= -1.00D+00 NBFU=    15     4
 Initial guess from the checkpoint file:  "/scratch/mtmjea001/water/Gau-21391.chk"
 B after Tr=    -0.000000    0.000000   -0.000000
         Rot=    1.000000   -0.000000   -0.000000    0.000000 Ang=   0.00 deg.
 Initial guess orbital symmetries:
       Occupied  (A') (A') (A') (A') (A")
       Virtual   (A') (A') (A') (A') (A") (A') (A') (A') (A') (A")
                 (A") (A') (A') (A')
 Keep R1 ints in memory in symmetry-blocked form, NReq=2487617.
 Requested convergence on RMS density matrix=1.00D-08 within 128 cycles.
 Requested convergence on MAX density matrix=1.00D-06.
 Requested convergence on             energy=1.00D-06.
 No special actions if energy rises.
 SCF Done:  E(RHF) =  -76.0107465155     A.U. after    1 cycles
            NFock=  1  Conv=0.14D-09     -V/T= 2.0020
 Range of M.O.s used for correlation:     1    19
 NBasis=    19 NAE=     5 NBE=     5 NFC=     0 NFV=     0
 NROrb=     19 NOA=     5 NOB=     5 NVA=    14 NVB=    14
 Fully direct method using O(ONN) memory.
 JobTyp=1 Pass  1:  I=   1 to   5 NPSUse=  8 ParTrn=T ParDer=T DoDerP=T.
 Spin components of T(2) and E(2):
     alpha-alpha T2 =       0.6121118227D-02 E2=     -0.2406570031D-01
     alpha-beta  T2 =       0.3600588823D-01 E2=     -0.1394889684D+00
     beta-beta   T2 =       0.6121118227D-02 E2=     -0.2406570031D-01
 ANorm=    0.1023839892D+01
 E2 =    -0.1876203691D+00 EUMP2 =    -0.76198366884603D+02
          IDoAtm=111
          Differentiating once with respect to electric field.
                with respect to dipole field.
          Differentiating once with respect to nuclear coordinates.
 Keep R1 ints in memory in symmetry-blocked form, NReq=2488133.
          There are     1 degrees of freedom in the 1st order CPHF.  IDoFFX=0 NUNeed=     1.
 LinEq1:  Iter=  0 NonCon=     1 RMS=5.97D-03 Max=2.27D-02 NDo=     1
 AX will form     1 AO Fock derivatives at one time.
 LinEq1:  Iter=  1 NonCon=     1 RMS=9.00D-04 Max=5.02D-03 NDo=     1
 LinEq1:  Iter=  2 NonCon=     1 RMS=3.63D-04 Max=1.87D-03 NDo=     1
 LinEq1:  Iter=  3 NonCon=     1 RMS=4.76D-05 Max=1.87D-04 NDo=     1
 LinEq1:  Iter=  4 NonCon=     1 RMS=7.07D-06 Max=2.87D-05 NDo=     1
 LinEq1:  Iter=  5 NonCon=     1 RMS=1.38D-06 Max=5.05D-06 NDo=     1
 LinEq1:  Iter=  6 NonCon=     1 RMS=1.39D-07 Max=8.77D-07 NDo=     1
 LinEq1:  Iter=  7 NonCon=     1 RMS=8.30D-09 Max=3.73D-08 NDo=     1
 LinEq1:  Iter=  8 NonCon=     1 RMS=6.40D-10 Max=3.22D-09 NDo=     1
 LinEq1:  Iter=  9 NonCon=     0 RMS=6.14D-11 Max=2.33D-10 NDo=     1
 Linear equations converged to 1.000D-10 1.000D-09 after     9 iterations.
 End of Minotr F.D. properties file   721 does not exist.
 End of Minotr F.D. properties file   722 does not exist.
 End of Minotr F.D. properties file   788 does not exist.

 **********************************************************************

            Population analysis using the SCF Density.

 **********************************************************************

 Orbital symmetries:
       Occupied  (A') (A') (A') (A') (A")
       Virtual   (A') (A') (A') (A') (A") (A') (A') (A') (A') (A")
                 (A") (A') (A') (A')
 The electronic state is 1-A'.
 Alpha  occ. eigenvalues --  -20.55788  -1.34613  -0.71427  -0.57080  -0.49821
 Alpha virt. eigenvalues --    0.21302   0.30687   1.03170   1.13339   1.16803
 Alpha virt. eigenvalues --    1.17846   1.38511   1.43120   2.02057   2.03058
 Alpha virt. eigenvalues --    2.06723   2.63563   2.96579   3.97771
          Condensed to atoms (all electrons):
               1          2          3
     1  O    8.332906   0.267926   0.267926
     2  H    0.267926   0.316178  -0.018482
     3  H    0.267926  -0.018482   0.316178
 Mulliken charges:
               1
     1  O   -0.868757
     2  H    0.434379
     3  H    0.434379
 Sum of Mulliken charges =   0.00000
 Mulliken charges with hydrogens summed into heavy atoms:
               1
     1  O    0.000000
 Electronic spatial extent (au):  <R**2>=             18.8110
 Charge=              0.0000 electrons
 Dipole moment (field-independent basis, Debye):
    X=             -0.0000    Y=             -2.1989    Z=             -0.0000  Tot=              2.1989
 Quadrupole moment (field-independent basis, Debye-Ang):
   XX=             -4.1055   YY=             -6.0010   ZZ=             -7.2057
   XY=             -0.0000   XZ=              0.0000   YZ=             -0.0000
 Traceless Quadrupole moment (field-independent basis, Debye-Ang):
   XX=              1.6652   YY=             -0.2302   ZZ=             -1.4350
   XY=             -0.0000   XZ=              0.0000   YZ=             -0.0000
 Octapole moment (field-independent basis, Debye-Ang**2):
  XXX=             -0.0000  YYY=             -1.4303  ZZZ=              0.0000  XYY=              0.0000
  XXY=             -1.3548  XXZ=             -0.0000  XZZ=             -0.0000  YZZ=             -0.3873
  YYZ=             -0.0000  XYZ=             -0.0000
 Hexadecapole moment (field-independent basis, Debye-Ang**3):
 XXXX=             -5.3635 YYYY=             -5.9893 ZZZZ=             -5.1841 XXXY=              0.0000
 XXXZ=              0.0000 YYYX=              0.0000 YYYZ=             -0.0000 ZZZX=             -0.0000
 ZZZY=             -0.0000 XXYY=             -1.5811 XXZZ=             -2.0169 YYZZ=             -1.9086
 XXYZ=              0.0000 YYXZ=              0.0000 ZZXY=              0.0000
 N-N= 9.288544062541D+00 E-N=-1.990836670045D+02  KE= 7.585964710272D+01
 Symmetry A'   KE= 7.130805092849D+01
 Symmetry A"   KE= 4.551596174227D+00
 Calling FoFJK, ICntrl=  10002127 FMM=F ISym2X=1 I1Cent= 0 IOpClX= 0 NMat=1 NMatS=1 NMatT=0.
 ***** Axes restored to original set *****
 -------------------------------------------------------------------
 Center     Atomic                   Forces (Hartrees/Bohr)
 Number     Number              X              Y              Z
 -------------------------------------------------------------------
      1        8          -0.016274853    0.022851514   -0.002746783
      2        1           0.021641096   -0.001945391    0.000233837
      3        1          -0.005366243   -0.020906122    0.002512946
 -------------------------------------------------------------------
 Cartesian Forces:  Max     0.022851514 RMS     0.013900284

 GradGradGradGradGradGradGradGradGradGradGradGradGradGradGradGradGradGrad
 Berny optimization.
 FormGI is forming the generalized inverse of G from B-inverse, IUseBI=4.
 Internal  Forces:  Max     0.021696019 RMS     0.017758686
 Search for a local minimum.
 Step number   1 out of a maximum of   20
 All quantities printed in internal units (Hartrees-Bohrs-Radians)
 Mixed Optimization -- RFO/linear search
[...]
 HarFok:  IExCor=  205 AccDes= 0.00D+00 IRadAn=         5 IDoV=-2 UseB2=F ITyADJ=14
 ICtDFT= 12500011 ScaDFX=  1.000000  1.000000  1.000000  1.000000
 Range of M.O.s used for correlation:     2    42
 NBasis=    42 NAE=     5 NBE=     5 NFC=     1 NFV=     0
 NROrb=     41 NOA=     4 NOB=     4 NVA=    37 NVB=    37
 Semi-Direct transformation.
 ModeAB=           4 MOrb=             4 LenV=     104603407
 LASXX=        32356 LTotXX=       32356 LenRXX=       67639
 LTotAB=       35283 MaxLAS=      160884 LenRXY=           0
 NonZer=       99995 LenScr=      785920 LnRSAI=      160884
 LnScr1=      785920 LExtra=           0 Total=      1800363
 MaxDsk=          -1 SrtSym=           T ITran=            4
 JobTyp=0 Pass  1:  I=   1 to   4.
 (rs|ai) integrals will be sorted in core.
 Spin components of T(2) and E(2):
     alpha-alpha T2 =       0.7239682654D-02 E2=     -0.3073891735D-01
     alpha-beta  T2 =       0.4332275914D-01 E2=     -0.1896869890D+00
     beta-beta   T2 =       0.7239682654D-02 E2=     -0.3073891735D-01
 ANorm=    0.1028495078D+01
 E2 =    -0.2511648237D+00 EUMP2 =    -0.76298942588290D+02
 Keep R2 and R3 ints in memory in symmetry-blocked form, NReq=6251759.
 CIDS: In Core Option IDoMem=           1.
 Produce multiple copies of IABC intergrals
 DD1Dir will call FoFMem   1 times, MxPair=        20
 NAB=    10 NAA=     0 NBB=     0.
 MP4(D)= -0.42297929D-02
 MP4(S)= -0.12393438D-02
 MP4(R+Q)=  0.33441240D-02
 Time for triples=        1.84 seconds.
 MP4(T)=   -0.68576347D-02
 E3=       -0.55340122D-02        EUMP3=      -0.76304476600D+02
 E4(DQ)=   -0.88566886D-03        UMP4(DQ)=   -0.76305362269D+02
 E4(SDQ)=  -0.21250127D-02        UMP4(SDQ)=  -0.76306601613D+02
 E4(SDTQ)= -0.89826475D-02        UMP4(SDTQ)= -0.76313459248D+02
 Largest amplitude= 4.52D-02
 Discarding MO integrals.

 **********************************************************************

            Population analysis using the SCF Density.

 **********************************************************************

 Orbital symmetries:
       Occupied  (A1) (A1) (B2) (A1) (B1)
       Virtual   (A1) (B2) (B2) (A1) (A1) (B1) (B2) (A1) (A1) (A2)
                 (B1) (B2) (A1) (B2) (B1) (A2) (A1) (B2) (A1) (A1)
                 (B2) (B1) (B1) (A1) (A1) (B2) (B1) (A2) (B2) (A1)
                 (B2) (B1) (A2) (A1) (A1) (B2) (A1)
 The electronic state is 1-A1.
 Alpha  occ. eigenvalues --  -20.54729  -1.33495  -0.69789  -0.57194  -0.50023
 Alpha virt. eigenvalues --    0.14955   0.21629   0.55004   0.60309   0.98844
 Alpha virt. eigenvalues --    1.00286   1.07072   1.29430   1.38791   1.40263
 Alpha virt. eigenvalues --    1.52480   1.82646   1.90574   1.96767   2.33016
 Alpha virt. eigenvalues --    2.33413   2.50507   2.66332   2.66701   3.07995
 Alpha virt. eigenvalues --    3.30481   5.32291   5.45543   5.52403   5.59908
 Alpha virt. eigenvalues --    5.61366   5.73751   5.76754   5.85536   6.58703
 Alpha virt. eigenvalues --    6.78817   7.36725   7.41314   7.49090   7.62299
 Alpha virt. eigenvalues --    7.87554  51.55265
          Condensed to atoms (all electrons):
               1          2          3
     1  O    7.971335   0.318716   0.318716
     2  H    0.318716   0.406119  -0.029217
     3  H    0.318716  -0.029217   0.406119
 Mulliken charges:
               1
     1  O   -0.608766
     2  H    0.304383
     3  H    0.304383
 Sum of Mulliken charges =   0.00000
 Mulliken charges with hydrogens summed into heavy atoms:
               1
     1  O    0.000000
 Electronic spatial extent (au):  <R**2>=             19.0611
 Charge=             -0.0000 electrons
 Dipole moment (field-independent basis, Debye):
    X=             -0.0000    Y=             -0.0000    Z=             -2.1091  Tot=              2.1091
 Quadrupole moment (field-independent basis, Debye-Ang):
   XX=             -7.2255   YY=             -4.1345   ZZ=             -5.9492
   XY=              0.0000   XZ=              0.0000   YZ=              0.0000
 Traceless Quadrupole moment (field-independent basis, Debye-Ang):
   XX=             -1.4557   YY=              1.6352   ZZ=             -0.1795
   XY=              0.0000   XZ=              0.0000   YZ=              0.0000
 Octapole moment (field-independent basis, Debye-Ang**2):
  XXX=              0.0000  YYY=             -0.0000  ZZZ=             -1.3022  XYY=             -0.0000
  XXY=             -0.0000  XXZ=             -0.3123  XZZ=              0.0000  YZZ=             -0.0000
  YYZ=             -1.4187  XYZ=             -0.0000
 Hexadecapole moment (field-independent basis, Debye-Ang**3):
 XXXX=             -5.2854 YYYY=             -5.6748 ZZZZ=             -6.1838 XXXY=             -0.0000
 XXXZ=             -0.0000 YYYX=             -0.0000 YYYZ=              0.0000 ZZZX=              0.0000
 ZZZY=             -0.0000 XXYY=             -2.1346 XXZZ=             -1.9722 YYZZ=             -1.5836
 XXYZ=             -0.0000 YYXZ=              0.0000 ZZXY=              0.0000
 N-N= 9.088303733345D+00 E-N=-1.989789376272D+02  KE= 7.601136013324D+01
 Symmetry A1   KE= 6.793043968938D+01
 Symmetry A2   KE= 5.785541423408D-33
 Symmetry B1   KE= 4.574392069020D+00
 Symmetry B2   KE= 3.506528374841D+00

 Test job not archived.
 1\1\GINC-ASTERIX\SP\RMP4SDTQ-FC\6-311G(2df,p)\H2O1\MTMJEA001\25-Feb-20
 20\0\\#N Geom=AllCheck Guess=TCheck SCRF=Check Test MP4/6-311G(2df,p)\
 \water\\0,1\O,0,0.9436034177,-0.0507028484,-0.0593816274\H,0,1.9110609
 986,-0.0967459797,-0.0538472611\H,0,0.6648455773,-0.9716611712,0.05131
 88884\\Version=ES64L-G16RevC.01\State=1-A1\HF=-76.0477778\MP2=-76.2989
 426\MP3=-76.3044766\MP4D=-76.3087064\MP4DQ=-76.3053623\MP4SDQ=-76.3066
 016\MP4SDTQ=-76.3134592\RMSD=1.272e-09\PG=C02V [C2(O1),SGV(H2)]\\@


 SATCHEL PAIGE'S GUIDE TO LONGEVITY

    1.  AVOID FRIED MEATS, WHICH ANGRY UP THE BLOOD.

    2.  IF YOUR STOMACH DISPUTES YOU, LIE DOWN AND PACIFY IT WITH COOL
        THOUGHTS.

    3.  KEEP THE JUICES FLOWING BY JANGLING AROUND GENTLY AS YOU MOVE.

    4.  GO VERY LIGHT ON THE VICES, SUCH AS CARRYING ON IN SOCIETY.
        THE SOCIAL RUMBLE AIN'T RESTFUL.

    5.  AVOID RUNNING AT ALL TIMES.

    6.  DON'T LOOK BACK.  SOMETHING MAY BE GAINING ON YOU.
 Job cpu time:       0 days  0 hours  0 minutes 16.8 seconds.
 Elapsed time:       0 days  0 hours  0 minutes  1.6 seconds.
 File lengths (MBytes):  RWF=     19 Int=      0 D2E=      0 Chk=      1 Scr=      1
 Normal termination of Gaussian 16 at Tue Feb 25 10:58:00 2020.
 Link1:  Proceeding to internal job step number  7.
 -----------------------------------------------------------------
 #N Geom=AllCheck Guess=TCheck SCRF=Check Test MP2/6-311+G(3df,2p)
 -----------------------------------------------------------------
 1/29=7,38=1,40=1,172=1/1;
 2/12=2,40=1/2;
 3/5=4,6=6,7=216,11=9,14=-4,25=1,30=1,70=2,116=-2/1,2,3;
 4/5=101/1;
 5/5=2,38=6/2;
 8/10=2/1;
 9/16=-3/6;
 6/7=2,8=2,9=2,10=2/1;
 99/5=1,9=1/99;
 Structure from the checkpoint file:  "/scratch/mtmjea001/water/Gau-21391.chk"
 -----
 water
 -----
 Charge =  0 Multiplicity = 1
 Redundant internal coordinates found in file.  (old form).
 O,0,0.9436034177,-0.0507028484,-0.0593816274
 H,0,1.9110609986,-0.0967459797,-0.0538472611
 H,0,0.6648455773,-0.9716611712,0.0513188884
 Recover connectivity data from disk.
                           ----------------------------
                           !    Current Parameters    !
                           ! (Angstroms and Degrees)  !
 --------------------------                            --------------------------
 ! Name  Definition              Value                                          !
 --------------------------------------------------------------------------------
 ! R1    R(1,2)                  0.9686                                         !
 ! R2    R(1,3)                  0.9686                                         !
 ! A1    A(2,1,3)              103.9822                                         !
 --------------------------------------------------------------------------------
                          Input orientation:                          
 ---------------------------------------------------------------------
 Center     Atomic      Atomic             Coordinates (Angstroms)
 Number     Number       Type             X           Y           Z
 ---------------------------------------------------------------------
      1          8           0        0.943603   -0.050703   -0.059382
      2          1           0        1.911061   -0.096746   -0.053847
      3          1           0        0.664846   -0.971661    0.051319
 ---------------------------------------------------------------------
                    Distance matrix (angstroms):
                    1          2          3
     1  O    0.000000
     2  H    0.968568   0.000000
     3  H    0.968568   1.526299   0.000000
 Stoichiometry    H2O
 Framework group  C2V[C2(O),SGV(H2)]
 Deg. of freedom     2
 Full point group                 C2V     NOp   4
 Largest Abelian subgroup         C2V     NOp   4
 Largest concise Abelian subgroup C2      NOp   2
                         Standard orientation:                         
 ---------------------------------------------------------------------
 Center     Atomic      Atomic             Coordinates (Angstroms)
 Number     Number       Type             X           Y           Z
 ---------------------------------------------------------------------
      1          8           0       -0.000000    0.000000    0.119286
      2          1           0        0.000000    0.763150   -0.477143
      3          1           0       -0.000000   -0.763150   -0.477143
 ---------------------------------------------------------------------
 Rotational constants (GHZ):         793.6520051         430.5094341         279.1091638
 Standard basis: 6-311+G(3df,2p) (5D, 7F)
 There are    28 symmetry adapted cartesian basis functions of A1  symmetry.
 There are     6 symmetry adapted cartesian basis functions of A2  symmetry.
 There are    12 symmetry adapted cartesian basis functions of B1  symmetry.
 There are    17 symmetry adapted cartesian basis functions of B2  symmetry.
 There are    24 symmetry adapted basis functions of A1  symmetry.
 There are     6 symmetry adapted basis functions of A2  symmetry.
 There are    11 symmetry adapted basis functions of B1  symmetry.
 There are    16 symmetry adapted basis functions of B2  symmetry.
    57 basis functions,    80 primitive gaussians,    63 cartesian basis functions
     5 alpha electrons        5 beta electrons
       nuclear repulsion energy         9.0883037333 Hartrees.
 NAtoms=    3 NActive=    3 NUniq=    2 SFac= 2.25D+00 NAtFMM=   60 NAOKFM=F Big=F
 Integral buffers will be    131072 words long.
 Raffenetti 1 integral format.
 Two-electron integral symmetry is turned on.
 One-electron integrals computed using PRISM.
 NBasis=    57 RedAO= T EigKep=  9.57D-04  NBF=    24     6    11    16
 NBsUse=    57 1.00D-06 EigRej= -1.00D+00 NBFU=    24     6    11    16
 Initial guess from the checkpoint file:  "/scratch/mtmjea001/water/Gau-21391.chk"
 B after Tr=     0.000000    0.000000    0.000000
         Rot=    1.000000    0.000000   -0.000000   -0.000000 Ang=   0.00 deg.
 Initial guess orbital symmetries:
       Occupied  (A1) (A1) (B2) (A1) (B1)
       Virtual   (A1) (B2) (B2) (A1) (A1) (B1) (B2) (A1) (A1) (A2)
                 (B1) (B2) (A1) (B2) (B1) (A2) (A1) (B2) (A1) (A1)
                 (B2) (B1) (B1) (A1) (A1) (B2) (B1) (A2) (B2) (A1)
                 (B2) (B1) (A2) (A1) (A1) (B2) (A1) (A1) (A1) (A1)
                 (A1) (A1) (A1) (A2) (A2) (B1) (B1) (B1) (B2) (B2)
                 (B2) (B2)
 Keep R1 ints in memory in symmetry-blocked form, NReq=7213916.
 Requested convergence on RMS density matrix=1.00D-08 within 128 cycles.
 Requested convergence on MAX density matrix=1.00D-06.
 Requested convergence on             energy=1.00D-06.
 No special actions if energy rises.
 SCF Done:  E(RHF) =  -76.0565240877     A.U. after   10 cycles
            NFock= 10  Conv=0.32D-08     -V/T= 2.0015
 ExpMin= 8.45D-02 ExpMax= 8.59D+03 ExpMxC= 1.30D+03 IAcc=3 IRadAn=         5 AccDes= 0.00D+00
 HarFok:  IExCor=  205 AccDes= 0.00D+00 IRadAn=         5 IDoV=-2 UseB2=F ITyADJ=14
 ICtDFT= 12500011 ScaDFX=  1.000000  1.000000  1.000000  1.000000
 Range of M.O.s used for correlation:     2    57
 NBasis=    57 NAE=     5 NBE=     5 NFC=     1 NFV=     0
 NROrb=     56 NOA=     4 NOB=     4 NVA=    52 NVB=    52

 **** Warning!!: The largest alpha MO coefficient is  0.14122577D+02

 Fully in-core method, ICMem=    10710762.
 JobTyp=1 Pass  1 fully in-core, NPsUse= 12.
 Spin components of T(2) and E(2):
     alpha-alpha T2 =       0.8101181362D-02 E2=     -0.3214498360D-01
     alpha-beta  T2 =       0.4684587065D-01 E2=     -0.1972943859D+00
     beta-beta   T2 =       0.8101181362D-02 E2=     -0.3214498360D-01
 ANorm=    0.1031042304D+01
 E2 =    -0.2615843531D+00 EUMP2 =    -0.76318108440889D+02

 **********************************************************************

            Population analysis using the SCF Density.

 **********************************************************************

 Orbital symmetries:
       Occupied  (A1) (A1) (B2) (A1) (B1)
       Virtual   (A1) (B2) (A1) (B1) (B2) (A1) (B2) (A1) (A1) (A2)
                 (B1) (B2) (A1) (B2) (A1) (B1) (A2) (B1) (B2) (A1)
                 (A1) (B2) (A1) (A1) (B2) (A2) (A1) (B1) (B2) (A1)
                 (B2) (B1) (A2) (A1) (A1) (B2) (B1) (B1) (A1) (B2)
                 (A1) (B1) (A2) (B2) (A1) (B2) (B1) (A2) (A1) (A1)
                 (B2) (A1)
 The electronic state is 1-A1.
 Alpha  occ. eigenvalues --  -20.56865  -1.34835  -0.71180  -0.58456  -0.51001
 Alpha virt. eigenvalues --    0.14267   0.20500   0.23729   0.24599   0.26222
 Alpha virt. eigenvalues --    0.30259   0.64195   0.65714   0.77325   0.81260
 Alpha virt. eigenvalues --    0.86450   1.00159   1.06875   1.17739   1.19312
 Alpha virt. eigenvalues --    1.22210   1.31772   1.36468   1.38916   1.48451
 Alpha virt. eigenvalues --    1.64509   1.81089   1.92859   2.93576   2.94177
 Alpha virt. eigenvalues --    3.41457   3.42994   3.52430   3.69570   3.74444
 Alpha virt. eigenvalues --    3.98568   4.32015   4.38009   4.59143   4.96539
 Alpha virt. eigenvalues --    5.23055   5.44108   5.54026   5.60412   5.69248
 Alpha virt. eigenvalues --    5.84249   5.90917   6.04092   6.17171   7.36238
 Alpha virt. eigenvalues --    7.50153  15.02012  15.03891  15.08556  15.31727
 Alpha virt. eigenvalues --   15.78029  51.63325
          Condensed to atoms (all electrons):
               1          2          3
     1  O    8.040498   0.224317   0.224317
     2  H    0.224317   0.557991  -0.026873
     3  H    0.224317  -0.026873   0.557991
 Mulliken charges:
               1
     1  O   -0.489132
     2  H    0.244566
     3  H    0.244566
 Sum of Mulliken charges =   0.00000
 Mulliken charges with hydrogens summed into heavy atoms:
               1
     1  O    0.000000
 Electronic spatial extent (au):  <R**2>=             19.6108
 Charge=              0.0000 electrons
 Dipole moment (field-independent basis, Debye):
    X=             -0.0000    Y=              0.0000    Z=             -2.0377  Tot=              2.0377
 Quadrupole moment (field-independent basis, Debye-Ang):
   XX=             -7.6100   YY=             -4.2280   ZZ=             -6.2106
   XY=              0.0000   XZ=              0.0000   YZ=             -0.0000
 Traceless Quadrupole moment (field-independent basis, Debye-Ang):
   XX=             -1.5938   YY=              1.7882   ZZ=             -0.1944
   XY=              0.0000   XZ=              0.0000   YZ=             -0.0000
 Octapole moment (field-independent basis, Debye-Ang**2):
  XXX=              0.0000  YYY=              0.0000  ZZZ=             -1.2501  XYY=             -0.0000
  XXY=             -0.0000  XXZ=             -0.2909  XZZ=             -0.0000  YZZ=              0.0000
  YYZ=             -1.4782  XYZ=             -0.0000
 Hexadecapole moment (field-independent basis, Debye-Ang**3):
 XXXX=             -6.6685 YYYY=             -5.9506 ZZZZ=             -7.1788 XXXY=             -0.0000
 XXXZ=             -0.0000 YYYX=             -0.0000 YYYZ=             -0.0000 ZZZX=             -0.0000
 ZZZY=             -0.0000 XXYY=             -2.4338 XXZZ=             -2.3679 YYZZ=             -1.7971
 XXYZ=              0.0000 YYXZ=              0.0000 ZZXY=              0.0000
 N-N= 9.088303733345D+00 E-N=-1.987835304780D+02  KE= 7.594061688545D+01
 Symmetry A1   KE= 6.791589213339D+01
 Symmetry A2   KE= 2.941900621055D-31
 Symmetry B1   KE= 4.471273295492D+00
 Symmetry B2   KE= 3.553451456572D+00

 Test job not archived.
 1\1\GINC-ASTERIX\SP\RMP2-FC\6-311+G(3df,2p)\H2O1\MTMJEA001\25-Feb-2020
 \0\\#N Geom=AllCheck Guess=TCheck SCRF=Check Test MP2/6-311+G(3df,2p)\
 \water\\0,1\O,0,0.9436034177,-0.0507028484,-0.0593816274\H,0,1.9110609
 986,-0.0967459797,-0.0538472611\H,0,0.6648455773,-0.9716611712,0.05131
 88884\\Version=ES64L-G16RevC.01\State=1-A1\HF=-76.0565241\MP2=-76.3181
 084\RMSD=3.181e-09\PG=C02V [C2(O1),SGV(H2)]\\@


 ...THOSE SCIENCES ARE VAIN AND FULL OF ERRORS WHICH 
 ARE NOT BORN FROM EXPERIMENT, THE MOTHER OF CERTAINTY...

                          -- LEONARDO DA VINCI, 1452-1519
 Diagonal vibrational polarizability:
        0.0000000       0.0000000       0.0000000
 
 Temperature=              298.150000 Pressure=                      1.000000
 E(ZPE)=                     0.020515 E(Thermal)=                    0.023350
 E(QCISD(T))=              -76.276068 E(Empiric)=                   -0.024560
 DE(Plus)=                  -0.010833 DE(2DF)=                      -0.037392
 G1(0 K)=                  -76.328338 G1 Energy=                   -76.325502
 G1 Enthalpy=              -76.324558 G1 Free Energy=              -76.345935
 E(Delta-G2)=               -0.008273 E(G2-Empiric)=                 0.004560
 G2(0 K)=                  -76.332051 G2 Energy=                   -76.329215
 G2 Enthalpy=              -76.328271 G2 Free Energy=              -76.349648
 DE(MP2)=                   -0.054454
 G2MP2(0 K)=               -76.330008 G2MP2 Energy=                -76.327172
 G2MP2 Enthalpy=           -76.326228 G2MP2 Free Energy=           -76.347605

 Test job not archived.
 1\1\GINC-ASTERIX\Mixed\G2\G2\H2O1\MTMJEA001\25-Feb-2020\0\\#g2\\water\
 \0,1\O,0,0.9436034177,-0.0507028484,-0.0593816274\H,0,1.9110609986,-0.
 0967459797,-0.0538472611\H,0,0.6648455773,-0.9716611712,0.0513188884\\
 Version=ES64L-G16RevC.01\State=1-A1\MP2/6-311G(d,p)=-76.263654\QCISD(T
 )/6-311G(d,p)=-76.2760681\MP4/6-311G(d,p)=-76.2760676\MP2/6-311+G(d,p)
 =-76.2745467\MP4/6-311+G(d,p)=-76.2869005\MP2/6-311G(2df,p)=-76.298942
 6\MP4/6-311G(2df,p)=-76.3134592\MP2/6-311+G(3df,2p)=-76.3181084\G1=-76
 .3283377\G2MP2=-76.3300075\G2=-76.3320509\FreqCoord=1.7998947007,-0.11
 9322861,-0.1093892755,3.5889971075,-0.1809074819,-0.1019868707,1.26201
 81845,-1.8145810603,0.0943832019\PG=C02V [C2(O1),SGV(H2)]\NImag=0\\0.7
 0159287,0.11750325,0.60910858,-0.01412412,-0.07321538,0.00880344,-0.59
 803497,-0.00804190,0.00096670,0.61327224,0.06410991,-0.06083703,0.0073
 1252,-0.00327088,0.05847259,-0.00770605,0.00731253,-0.00088041,0.00039
 311,-0.00702832,0.00084617,-0.10355790,-0.10946135,0.01315742,-0.01523
 727,-0.06083902,0.00731294,0.11879516,-0.18161316,-0.54827155,0.065902
 86,0.01131279,0.00236444,-0.00028420,0.17030037,0.54590710,0.02183017,
 0.06590285,-0.00792303,-0.00135981,-0.00028420,0.00003424,-0.02047036,
 -0.06561866,0.00788880\\-0.00000180,0.00000249,-0.00000030,0.00000238,
 -0.00000021,0.00000003,-0.00000058,-0.00000228,0.00000027\\\@
 Job cpu time:       0 days  0 hours  0 minutes 13.7 seconds.
 Elapsed time:       0 days  0 hours  0 minutes  1.4 seconds.
 File lengths (MBytes):  RWF=     19 Int=      0 D2E=      0 Chk=      1 Scr=      1
 Normal termination of Gaussian 16 at Tue Feb 25 10:58:02 2020.
