 Entering Gaussian System, Link 0=g16
 Input=c2c1im_scn.gjf
 Output=c2c1im_scn.log
 Initial command:
 /opt/g16/l1.exe "/scratch/mtmjea001/c2c1im_scn/Gau-21139.inp" -scrdir="/scratch/mtmjea001/c2c1im_scn/"
 Entering Link 1 = /opt/g16/l1.exe PID=     21140.
  
 Copyright (c) 1988-2019, Gaussian, Inc.  All Rights Reserved.
  
 This is part of the Gaussian(R) 16 program.  It is based on
 the Gaussian(R) 09 system (copyright 2009, Gaussian, Inc.),
 the Gaussian(R) 03 system (copyright 2003, Gaussian, Inc.),
 the Gaussian(R) 98 system (copyright 1998, Gaussian, Inc.),
 the Gaussian(R) 94 system (copyright 1995, Gaussian, Inc.),
 the Gaussian 92(TM) system (copyright 1992, Gaussian, Inc.),
 the Gaussian 90(TM) system (copyright 1990, Gaussian, Inc.),
 the Gaussian 88(TM) system (copyright 1988, Gaussian, Inc.),
 the Gaussian 86(TM) system (copyright 1986, Carnegie Mellon
 University), and the Gaussian 82(TM) system (copyright 1983,
 Carnegie Mellon University). Gaussian is a federally registered
 trademark of Gaussian, Inc.
  
 This software contains proprietary and confidential information,
 including trade secrets, belonging to Gaussian, Inc.
  
 This software is provided under written license and may be
 used, copied, transmitted, or stored only in accord with that
 written license.
  
 The following legend is applicable only to US Government
 contracts under FAR:
  
                    RESTRICTED RIGHTS LEGEND
  
 Use, reproduction and disclosure by the US Government is
 subject to restrictions as set forth in subparagraphs (a)
 and (c) of the Commercial Computer Software - Restricted
 Rights clause in FAR 52.227-19.
  
 Gaussian, Inc.
 340 Quinnipiac St., Bldg. 40, Wallingford CT 06492
  
  
 ---------------------------------------------------------------
 Warning -- This program may not be used in any manner that
 competes with the business of Gaussian, Inc. or will provide
 assistance to any competitor of Gaussian, Inc.  The licensee
 of this program is prohibited from giving any competitor of
 Gaussian, Inc. access to this program.  By using this program,
 the user acknowledges that Gaussian, Inc. is engaged in the
 business of creating and licensing software in the field of
 computational chemistry and represents and warrants to the
 licensee that it is not a competitor of Gaussian, Inc. and that
 it will not use this program in any manner prohibited above.
 ---------------------------------------------------------------
  

 Cite this work as:
 Gaussian 16, Revision C.01,
 M. J. Frisch, G. W. Trucks, H. B. Schlegel, G. E. Scuseria, 
 M. A. Robb, J. R. Cheeseman, G. Scalmani, V. Barone, 
 G. A. Petersson, H. Nakatsuji, X. Li, M. Caricato, A. V. Marenich, 
 J. Bloino, B. G. Janesko, R. Gomperts, B. Mennucci, H. P. Hratchian, 
 J. V. Ortiz, A. F. Izmaylov, J. L. Sonnenberg, D. Williams-Young, 
 F. Ding, F. Lipparini, F. Egidi, J. Goings, B. Peng, A. Petrone, 
 T. Henderson, D. Ranasinghe, V. G. Zakrzewski, J. Gao, N. Rega, 
 G. Zheng, W. Liang, M. Hada, M. Ehara, K. Toyota, R. Fukuda, 
 J. Hasegawa, M. Ishida, T. Nakajima, Y. Honda, O. Kitao, H. Nakai, 
 T. Vreven, K. Throssell, J. A. Montgomery, Jr., J. E. Peralta, 
 F. Ogliaro, M. J. Bearpark, J. J. Heyd, E. N. Brothers, K. N. Kudin, 
 V. N. Staroverov, T. A. Keith, R. Kobayashi, J. Normand, 
 K. Raghavachari, A. P. Rendell, J. C. Burant, S. S. Iyengar, 
 J. Tomasi, M. Cossi, J. M. Millam, M. Klene, C. Adamo, R. Cammi, 
 J. W. Ochterski, R. L. Martin, K. Morokuma, O. Farkas, 
 J. B. Foresman, and D. J. Fox, Gaussian, Inc., Wallingford CT, 2019.
 
 ******************************************
 Gaussian 16:  ES64L-G16RevC.01  3-Jul-2019
                 4-Mar-2020 
 ******************************************
 %chk=c2c1im_scn.chk
 %nprocs=12
 Will use up to   12 processors via shared memory.
 Default route: test
 --------
 #CBS-QB3
 --------
 1/18=20,19=15,26=3,38=1/1,3;
 2/9=110,12=2,17=6,18=5,40=1/2;
 3/5=4,6=6,7=700,11=2,25=1,30=1,71=1,74=-5/1,2,3;
 4//1;
 5/5=2,38=5/2;
 6/7=2,8=2,9=2,10=2,28=1/1;
 7//1,2,3,16;
 1/18=20,19=15,26=3/3(2);
 2/9=110/2;
 99//99;
 2/9=110/2;
 3/5=4,6=6,7=700,11=2,25=1,30=1,71=1,74=-5/1,2,3;
 4/5=5,16=3,69=1/1;
 5/5=2,38=5/2;
 7//1,2,3,16;
 1/18=20,19=15,26=3/3(-5);
 2/9=110/2;
 6/7=2,8=2,9=2,10=2,19=2,28=1/1;
 99/9=1/99;
 --------------
 c2c1im_scn.chk
 --------------
 Symbolic Z-matrix:
 Charge =  0 Multiplicity = 1
 C                     2.32943   1.50413   1.23463 
 C                     1.74697   1.13642  -0.12061 
 N                     0.29888   1.2071   -0.1223 
 C                    -0.48632   1.84675  -1.04612 
 C                    -1.75939   1.39964  -0.86675 
 N                    -1.72307   0.49265   0.1536 
 C                    -0.46536   0.37214   0.58769 
 C                    -2.81339  -0.35173   0.61233 
 C                     0.21661  -2.25708   0.00196 
 N                    -0.77714  -2.47344   0.58799 
 S                     1.59091  -1.91872  -0.79634 
 H                     2.06026   2.52446   1.5109 
 H                     3.41483   1.42747   1.18611 
 H                     1.96778   0.82507   2.00614 
 H                     1.96143   0.04471  -0.3733 
 H                     2.12593   1.78869  -0.90993 
 H                    -0.08083   2.55621  -1.74569 
 H                    -2.6713    1.6474   -1.38121 
 H                    -0.14527  -0.27792   1.38247 
 H                    -2.41897  -1.38015   0.66235 
 H                    -3.63744  -0.28677  -0.09498 
 H                    -3.14049  -0.02853   1.60123 
 
 Add virtual bond connecting atoms H15        and S11        Dist= 3.86D+00.
 Add virtual bond connecting atoms H20        and N10        Dist= 3.73D+00.

 GradGradGradGradGradGradGradGradGradGradGradGradGradGradGradGradGradGrad
 Berny optimization.
 Initialization pass.
                           ----------------------------
                           !    Initial Parameters    !
                           ! (Angstroms and Degrees)  !
 --------------------------                            --------------------------
 ! Name  Definition              Value          Derivative Info.                !
 --------------------------------------------------------------------------------
 ! R1    R(1,2)                  1.5202         estimate D2E/DX2                !
 ! R2    R(1,12)                 1.0908         estimate D2E/DX2                !
 ! R3    R(1,13)                 1.0892         estimate D2E/DX2                !
 ! R4    R(1,14)                 1.0896         estimate D2E/DX2                !
 ! R5    R(2,3)                  1.4498         estimate D2E/DX2                !
 ! R6    R(2,15)                 1.1409         estimate D2E/DX2                !
 ! R7    R(2,16)                 1.0918         estimate D2E/DX2                !
 ! R8    R(3,4)                  1.3708         estimate D2E/DX2                !
 ! R9    R(3,7)                  1.3362         estimate D2E/DX2                !
 ! R10   R(4,5)                  1.3612         estimate D2E/DX2                !
 ! R11   R(4,17)                 1.0757         estimate D2E/DX2                !
 ! R12   R(5,6)                  1.3657         estimate D2E/DX2                !
 ! R13   R(5,18)                 1.0759         estimate D2E/DX2                !
 ! R14   R(6,7)                  1.336          estimate D2E/DX2                !
 ! R15   R(6,8)                  1.4533         estimate D2E/DX2                !
 ! R16   R(7,19)                 1.0755         estimate D2E/DX2                !
 ! R17   R(8,20)                 1.1026         estimate D2E/DX2                !
 ! R18   R(8,21)                 1.0879         estimate D2E/DX2                !
 ! R19   R(8,22)                 1.0906         estimate D2E/DX2                !
 ! R20   R(9,10)                 1.1738         estimate D2E/DX2                !
 ! R21   R(9,11)                 1.625          estimate D2E/DX2                !
 ! R22   R(10,20)                1.9739         estimate D2E/DX2                !
 ! R23   R(11,15)                2.0424         estimate D2E/DX2                !
 ! A1    A(2,1,12)             110.946          estimate D2E/DX2                !
 ! A2    A(2,1,13)             108.9697         estimate D2E/DX2                !
 ! A3    A(2,1,14)             110.6905         estimate D2E/DX2                !
 ! A4    A(12,1,13)            108.8459         estimate D2E/DX2                !
 ! A5    A(12,1,14)            108.7676         estimate D2E/DX2                !
 ! A6    A(13,1,14)            108.5691         estimate D2E/DX2                !
 ! A7    A(1,2,3)              111.8345         estimate D2E/DX2                !
 ! A8    A(1,2,15)             110.908          estimate D2E/DX2                !
 ! A9    A(1,2,16)             111.5299         estimate D2E/DX2                !
 ! A10   A(3,2,15)             103.5409         estimate D2E/DX2                !
 ! A11   A(3,2,16)             108.4639         estimate D2E/DX2                !
 ! A12   A(15,2,16)            110.2605         estimate D2E/DX2                !
 ! A13   A(2,3,4)              126.559          estimate D2E/DX2                !
 ! A14   A(2,3,7)              122.6976         estimate D2E/DX2                !
 ! A15   A(4,3,7)              108.788          estimate D2E/DX2                !
 ! A16   A(3,4,5)              107.0763         estimate D2E/DX2                !
 ! A17   A(3,4,17)             122.0125         estimate D2E/DX2                !
 ! A18   A(5,4,17)             130.9112         estimate D2E/DX2                !
 ! A19   A(4,5,6)              106.9617         estimate D2E/DX2                !
 ! A20   A(4,5,18)             130.8474         estimate D2E/DX2                !
 ! A21   A(6,5,18)             122.1894         estimate D2E/DX2                !
 ! A22   A(5,6,7)              109.1299         estimate D2E/DX2                !
 ! A23   A(5,6,8)              126.9939         estimate D2E/DX2                !
 ! A24   A(7,6,8)              123.4566         estimate D2E/DX2                !
 ! A25   A(3,7,6)              108.0257         estimate D2E/DX2                !
 ! A26   A(3,7,19)             126.8804         estimate D2E/DX2                !
 ! A27   A(6,7,19)             125.0873         estimate D2E/DX2                !
 ! A28   A(6,8,20)             106.7298         estimate D2E/DX2                !
 ! A29   A(6,8,21)             109.1688         estimate D2E/DX2                !
 ! A30   A(6,8,22)             109.8184         estimate D2E/DX2                !
 ! A31   A(20,8,21)            110.8636         estimate D2E/DX2                !
 ! A32   A(20,8,22)            110.0337         estimate D2E/DX2                !
 ! A33   A(21,8,22)            110.1605         estimate D2E/DX2                !
 ! A34   A(9,10,20)            128.3815         estimate D2E/DX2                !
 ! A35   A(9,11,15)            104.5871         estimate D2E/DX2                !
 ! A36   A(2,15,11)            158.6956         estimate D2E/DX2                !
 ! A37   A(8,20,10)            144.3339         estimate D2E/DX2                !
 ! A38   L(10,9,11,3,-1)       178.6108         estimate D2E/DX2                !
 ! A39   L(10,9,11,3,-2)       179.5917         estimate D2E/DX2                !
 ! D1    D(12,1,2,3)           -60.6637         estimate D2E/DX2                !
 ! D2    D(12,1,2,15)         -175.6928         estimate D2E/DX2                !
 ! D3    D(12,1,2,16)           60.9941         estimate D2E/DX2                !
 ! D4    D(13,1,2,3)           179.5135         estimate D2E/DX2                !
 ! D5    D(13,1,2,15)           64.4844         estimate D2E/DX2                !
 ! D6    D(13,1,2,16)          -58.8288         estimate D2E/DX2                !
 ! D7    D(14,1,2,3)            60.1878         estimate D2E/DX2                !
 ! D8    D(14,1,2,15)          -54.8413         estimate D2E/DX2                !
 ! D9    D(14,1,2,16)         -178.1544         estimate D2E/DX2                !
 ! D10   D(1,2,3,4)            130.6607         estimate D2E/DX2                !
 ! D11   D(1,2,3,7)            -67.0719         estimate D2E/DX2                !
 ! D12   D(15,2,3,4)          -109.8715         estimate D2E/DX2                !
 ! D13   D(15,2,3,7)            52.3959         estimate D2E/DX2                !
 ! D14   D(16,2,3,4)             7.2535         estimate D2E/DX2                !
 ! D15   D(16,2,3,7)           169.5209         estimate D2E/DX2                !
 ! D16   D(1,2,15,11)          117.0222         estimate D2E/DX2                !
 ! D17   D(3,2,15,11)           -3.0791         estimate D2E/DX2                !
 ! D18   D(16,2,15,11)        -118.9373         estimate D2E/DX2                !
 ! D19   D(2,3,4,5)            165.414          estimate D2E/DX2                !
 ! D20   D(2,3,4,17)           -14.5181         estimate D2E/DX2                !
 ! D21   D(7,3,4,5)              1.1221         estimate D2E/DX2                !
 ! D22   D(7,3,4,17)          -178.8101         estimate D2E/DX2                !
 ! D23   D(2,3,7,6)           -166.4395         estimate D2E/DX2                !
 ! D24   D(2,3,7,19)            14.4655         estimate D2E/DX2                !
 ! D25   D(4,3,7,6)             -1.4157         estimate D2E/DX2                !
 ! D26   D(4,3,7,19)           179.4893         estimate D2E/DX2                !
 ! D27   D(3,4,5,6)             -0.3977         estimate D2E/DX2                !
 ! D28   D(3,4,5,18)          -179.9515         estimate D2E/DX2                !
 ! D29   D(17,4,5,6)           179.5262         estimate D2E/DX2                !
 ! D30   D(17,4,5,18)           -0.0277         estimate D2E/DX2                !
 ! D31   D(4,5,6,7)             -0.465          estimate D2E/DX2                !
 ! D32   D(4,5,6,8)           -173.1778         estimate D2E/DX2                !
 ! D33   D(18,5,6,7)           179.1362         estimate D2E/DX2                !
 ! D34   D(18,5,6,8)             6.4234         estimate D2E/DX2                !
 ! D35   D(5,6,7,3)              1.1675         estimate D2E/DX2                !
 ! D36   D(5,6,7,19)          -179.7171         estimate D2E/DX2                !
 ! D37   D(8,6,7,3)            174.1929         estimate D2E/DX2                !
 ! D38   D(8,6,7,19)            -6.6917         estimate D2E/DX2                !
 ! D39   D(5,6,8,20)           129.8034         estimate D2E/DX2                !
 ! D40   D(5,6,8,21)             9.9221         estimate D2E/DX2                !
 ! D41   D(5,6,8,22)          -110.9506         estimate D2E/DX2                !
 ! D42   D(7,6,8,20)           -41.9382         estimate D2E/DX2                !
 ! D43   D(7,6,8,21)          -161.8195         estimate D2E/DX2                !
 ! D44   D(7,6,8,22)            77.3078         estimate D2E/DX2                !
 ! D45   D(6,8,20,10)           11.0867         estimate D2E/DX2                !
 ! D46   D(21,8,20,10)         129.8691         estimate D2E/DX2                !
 ! D47   D(22,8,20,10)        -108.0196         estimate D2E/DX2                !
 ! D48   D(20,10,11,15)         45.5171         estimate D2E/DX2                !
 ! D49   D(9,10,20,8)          -29.9165         estimate D2E/DX2                !
 ! D50   D(9,11,15,2)          -30.4293         estimate D2E/DX2                !
 --------------------------------------------------------------------------------
 Trust Radius=3.00D-01 FncErr=1.00D-07 GrdErr=1.00D-06 EigMax=2.50D+02 EigMin=1.00D-04
 Number of steps in this run=    122 maximum allowed number of steps=    132.
 GradGradGradGradGradGradGradGradGradGradGradGradGradGradGradGradGradGrad

                          Input orientation:                          
 ---------------------------------------------------------------------
 Center     Atomic      Atomic             Coordinates (Angstroms)
 Number     Number       Type             X           Y           Z
 ---------------------------------------------------------------------
      1          6           0        2.329430    1.504130    1.234630
      2          6           0        1.746970    1.136420   -0.120610
      3          7           0        0.298880    1.207100   -0.122300
      4          6           0       -0.486320    1.846750   -1.046120
      5          6           0       -1.759390    1.399640   -0.866750
      6          7           0       -1.723070    0.492650    0.153600
      7          6           0       -0.465360    0.372140    0.587690
      8          6           0       -2.813390   -0.351730    0.612330
      9          6           0        0.216610   -2.257080    0.001960
     10          7           0       -0.777140   -2.473440    0.587990
     11         16           0        1.590910   -1.918720   -0.796340
     12          1           0        2.060260    2.524460    1.510900
     13          1           0        3.414830    1.427470    1.186110
     14          1           0        1.967780    0.825070    2.006140
     15          1           0        1.961430    0.044710   -0.373300
     16          1           0        2.125930    1.788690   -0.909930
     17          1           0       -0.080830    2.556210   -1.745690
     18          1           0       -2.671300    1.647400   -1.381210
     19          1           0       -0.145270   -0.277920    1.382470
     20          1           0       -2.418970   -1.380150    0.662350
     21          1           0       -3.637440   -0.286770   -0.094980
     22          1           0       -3.140490   -0.028530    1.601230
 ---------------------------------------------------------------------
                    Distance matrix (angstroms):
                    1          2          3          4          5
     1  C    0.000000
     2  C    1.520245   0.000000
     3  N    2.460207   1.449815   0.000000
     4  C    3.639733   2.519667   1.370815   0.000000
     5  C    4.598387   3.594519   2.197215   1.361172   0.000000
     6  N    4.314449   3.539888   2.162138   2.191453   1.365674
     7  C    3.083956   2.445448   1.336154   2.200965   2.201287
     8  C    5.502733   4.852698   3.557507   3.605416   2.523072
     9  C    4.486667   3.724630   3.467384   4.293484   4.246273
    10  N    5.088220   4.461427   3.899834   4.628059   4.252274
    11  S    4.047981   3.132865   3.448829   4.307672   4.716034
    12  H    1.090803   2.164863   2.739569   3.671881   4.637690
    13  H    1.089185   2.138688   3.386686   4.514157   5.566647
    14  H    1.089560   2.160732   2.731562   4.047558   4.740825
    15  H    2.202446   1.140910   2.044070   3.113120   3.990467
    16  H    2.172907   1.091830   2.072853   2.616442   3.904989
    17  H    3.974737   2.827992   2.144685   1.075711   2.219854
    18  H    5.645392   4.622913   3.255870   2.219496   1.075934
    19  H    3.053146   2.800032   2.160298   3.244778   3.237064
    20  H    5.585148   4.929625   3.833568   4.131209   3.240436
    21  H    6.370143   5.569380   4.210345   3.922516   2.639447
    22  H    5.692404   5.311225   4.040619   4.191629   3.168285
                    6          7          8          9         10
     6  N    0.000000
     7  C    1.335961   0.000000
     8  C    1.453344   2.457202   0.000000
     9  C    3.368437   2.778662   3.630952   0.000000
    10  N    3.143433   2.862609   2.940843   1.173790   0.000000
    11  S    4.207084   3.375178   4.882383   1.624953   2.798525
    12  H    4.503787   3.444351   5.729953   5.342197   5.820791
    13  H    5.323343   4.065428   6.502730   5.020631   5.757383
    14  H    4.143040   2.852598   5.117338   4.072221   4.519503
    15  H    3.748842   2.630593   4.891578   2.912637   3.842515
    16  H    4.198287   3.311233   5.594243   4.565665   5.370040
    17  H    3.250005   3.219113   4.635004   5.129377   5.588228
    18  H    2.142015   3.220097   2.826820   5.049569   4.944382
    19  H    2.143211   1.075505   2.778026   2.440049   2.418836
    20  H    2.061670   2.625393   1.102595   2.855066   1.973935
    21  H    2.081850   3.310935   1.087918   4.329575   3.664600
    22  H    2.091971   2.888619   1.090585   4.335230   3.548192
                   11         12         13         14         15
    11  S    0.000000
    12  H    5.028468   0.000000
    13  H    4.295786   1.773058   0.000000
    14  H    3.940090   1.772496   1.768980   0.000000
    15  H    2.042377   3.115949   2.540897   2.504144   0.000000
    16  H    3.747538   2.531025   2.486992   3.075230   1.832075
    17  H    4.870419   3.897519   4.699909   4.611928   3.515951
    18  H    5.587998   5.614374   6.609121   5.802709   5.004666
    19  H    3.233227   3.568500   3.952369   2.463845   2.761341
    20  H    4.300811   6.002459   6.495404   5.090417   4.721303
    21  H    5.521848   6.553293   7.369825   6.088463   5.615575
    22  H    5.630924   5.794283   6.727888   5.194902   5.471172
                   16         17         18         19         20
    16  H    0.000000
    17  H    2.481405   0.000000
    18  H    4.822394   2.769353   0.000000
    19  H    3.832013   4.221591   4.210180   0.000000
    20  H    5.759317   5.173054   3.661402   2.627393   0.000000
    21  H    6.179653   4.843228   2.515716   3.791858   1.803801
    22  H    6.110924   5.219605   3.453090   3.013535   1.796932
                   21         22
    21  H    0.000000
    22  H    1.786274   0.000000
 Stoichiometry    C7H11N3S
 Framework group  C1[X(C7H11N3S)]
 Deg. of freedom    60
 Full point group                 C1      NOp   1
 Largest Abelian subgroup         C1      NOp   1
 Largest concise Abelian subgroup C1      NOp   1
                         Standard orientation:                         
 ---------------------------------------------------------------------
 Center     Atomic      Atomic             Coordinates (Angstroms)
 Number     Number       Type             X           Y           Z
 ---------------------------------------------------------------------
      1          6           0       -1.768452   -2.142934    1.275983
      2          6           0       -1.335900   -1.618528   -0.083812
      3          7           0        0.076640   -1.293088   -0.111827
      4          6           0        0.986681   -1.686933   -1.058318
      5          6           0        2.093999   -0.912398   -0.894826
      6          7           0        1.833973   -0.058687    0.138919
      7          6           0        0.600055   -0.288369    0.596611
      8          6           0        2.663387    1.045971    0.590596
      9          6           0       -0.782044    2.061856    0.060697
     10          7           0        0.127574    2.534753    0.632313
     11         16           0       -2.029115    1.370084   -0.718236
     12          1           0       -1.226737   -3.054211    1.532830
     13          1           0       -2.834666   -2.363622    1.247548
     14          1           0       -1.588822   -1.398185    2.050724
     15          1           0       -1.843860   -0.623909   -0.317016
     16          1           0       -1.539828   -2.342038   -0.875670
     17          1           0        0.774610   -2.473501   -1.760807
     18          1           0        3.028060   -0.898397   -1.428651
     19          1           0        0.132054    0.243034    1.406115
     20          1           0        2.005718    1.928044    0.662262
     21          1           0        3.459286    1.213765   -0.131869
     22          1           0        3.086361    0.814847    1.568886
 ---------------------------------------------------------------------
 Rotational constants (GHZ):           1.0353456           0.9113208           0.5894708
 Standard basis: 6-311G(2d,d,p) (5D, 7F)
 There are   289 symmetry adapted cartesian basis functions of A   symmetry.
 There are   277 symmetry adapted basis functions of A   symmetry.
   277 basis functions,   460 primitive gaussians,   289 cartesian basis functions
    45 alpha electrons       45 beta electrons
       nuclear repulsion energy       698.4200944889 Hartrees.
 NAtoms=   22 NActive=   22 NUniq=   22 SFac= 1.00D+00 NAtFMM=   60 NAOKFM=F Big=F
 Integral buffers will be    131072 words long.
 Raffenetti 2 integral format.
 Two-electron integral symmetry is turned on.
 One-electron integrals computed using PRISM.
 NBasis=   277 RedAO= T EigKep=  8.05D-04  NBF=   277
 NBsUse=   277 1.00D-06 EigRej= -1.00D+00 NBFU=   277
 ExpMin= 7.71D-02 ExpMax= 9.34D+04 ExpMxC= 3.17D+03 IAcc=3 IRadAn=         5 AccDes= 0.00D+00
 Harris functional with IExCor=  402 and IRadAn=       5 diagonalized for initial guess.
 HarFok:  IExCor=  402 AccDes= 0.00D+00 IRadAn=         5 IDoV= 1 UseB2=F ITyADJ=14
 ICtDFT=  3500011 ScaDFX=  1.000000  1.000000  1.000000  1.000000
 FoFCou: FMM=F IPFlag=           0 FMFlag=      100000 FMFlg1=           0
         NFxFlg=           0 DoJE=T BraDBF=F KetDBF=T FulRan=T
         wScrn=  0.000000 ICntrl=       500 IOpCl=  0 I1Cent=   200000004 NGrid=           0
         NMat0=    1 NMatS0=      1 NMatT0=    0 NMatD0=    1 NMtDS0=    0 NMtDT0=    0
 Petite list used in FoFCou.
 Requested convergence on RMS density matrix=1.00D-08 within 128 cycles.
 Requested convergence on MAX density matrix=1.00D-06.
 Requested convergence on             energy=1.00D-06.
 No special actions if energy rises.
 Integral accuracy reduced to 1.0D-05 until final iterations.
 Initial convergence to 1.0D-05 achieved.  Increase integral accuracy.
 SCF Done:  E(RB3LYP) =  -835.915280851     A.U. after   15 cycles
            NFock= 15  Conv=0.68D-08     -V/T= 2.0024

 **********************************************************************

            Population analysis using the SCF Density.

 **********************************************************************

 Orbital symmetries:
       Occupied  (A) (A) (A) (A) (A) (A) (A) (A) (A) (A) (A) (A)
                 (A) (A) (A) (A) (A) (A) (A) (A) (A) (A) (A) (A)
                 (A) (A) (A) (A) (A) (A) (A) (A) (A) (A) (A) (A)
                 (A) (A) (A) (A) (A) (A) (A) (A) (A)
       Virtual   (A) (A) (A) (A) (A) (A) (A) (A) (A) (A) (A) (A)
                 (A) (A) (A) (A) (A) (A) (A) (A) (A) (A) (A) (A)
                 (A) (A) (A) (A) (A) (A) (A) (A) (A) (A) (A) (A)
                 (A) (A) (A) (A) (A) (A) (A) (A) (A) (A) (A) (A)
                 (A) (A) (A) (A) (A) (A) (A) (A) (A) (A) (A) (A)
                 (A) (A) (A) (A) (A) (A) (A) (A) (A) (A) (A) (A)
                 (A) (A) (A) (A) (A) (A) (A) (A) (A) (A) (A) (A)
                 (A) (A) (A) (A) (A) (A) (A) (A) (A) (A) (A) (A)
                 (A) (A) (A) (A) (A) (A) (A) (A) (A) (A) (A) (A)
                 (A) (A) (A) (A) (A) (A) (A) (A) (A) (A) (A) (A)
                 (A) (A) (A) (A) (A) (A) (A) (A) (A) (A) (A) (A)
                 (A) (A) (A) (A) (A) (A) (A) (A) (A) (A) (A) (A)
                 (A) (A) (A) (A) (A) (A) (A) (A) (A) (A) (A) (A)
                 (A) (A) (A) (A) (A) (A) (A) (A) (A) (A) (A) (A)
                 (A) (A) (A) (A) (A) (A) (A) (A) (A) (A) (A) (A)
                 (A) (A) (A) (A) (A) (A) (A) (A) (A) (A) (A) (A)
                 (A) (A) (A) (A) (A) (A) (A) (A) (A) (A) (A) (A)
                 (A) (A) (A) (A) (A) (A) (A) (A) (A) (A) (A) (A)
                 (A) (A) (A) (A) (A) (A) (A) (A) (A) (A) (A) (A)
                 (A) (A) (A) (A)
 The electronic state is 1-A.
 Alpha  occ. eigenvalues --  -88.77523 -14.43001 -14.42617 -14.23833 -10.28842
 Alpha  occ. eigenvalues --  -10.25348 -10.25256 -10.22605 -10.22348 -10.18583
 Alpha  occ. eigenvalues --  -10.17078  -7.86357  -5.82801  -5.82053  -5.81992
 Alpha  occ. eigenvalues --   -1.10626  -0.98801  -0.85495  -0.83629  -0.79983
 Alpha  occ. eigenvalues --   -0.75808  -0.70270  -0.68711  -0.66684  -0.63686
 Alpha  occ. eigenvalues --   -0.57618  -0.53157  -0.51020  -0.50581  -0.49713
 Alpha  occ. eigenvalues --   -0.48802  -0.47665  -0.45268  -0.43559  -0.41494
 Alpha  occ. eigenvalues --   -0.41031  -0.39482  -0.37374  -0.33735  -0.32241
 Alpha  occ. eigenvalues --   -0.32030  -0.30548  -0.28856  -0.19045  -0.18884
 Alpha virt. eigenvalues --   -0.04218  -0.01571   0.02068   0.03487   0.04479
 Alpha virt. eigenvalues --    0.05566   0.06673   0.07358   0.08394   0.08936
 Alpha virt. eigenvalues --    0.09103   0.10050   0.10625   0.10978   0.13635
 Alpha virt. eigenvalues --    0.14479   0.15361   0.16821   0.17389   0.19209
 Alpha virt. eigenvalues --    0.20163   0.21096   0.22771   0.23502   0.24216
 Alpha virt. eigenvalues --    0.26005   0.27157   0.27290   0.28632   0.29931
 Alpha virt. eigenvalues --    0.30863   0.32273   0.33338   0.36312   0.36836
 Alpha virt. eigenvalues --    0.38912   0.39894   0.41366   0.42403   0.44132
 Alpha virt. eigenvalues --    0.45385   0.46642   0.48690   0.48929   0.49671
 Alpha virt. eigenvalues --    0.51740   0.52103   0.52887   0.53767   0.54879
 Alpha virt. eigenvalues --    0.55223   0.55772   0.56280   0.57439   0.57992
 Alpha virt. eigenvalues --    0.58997   0.59356   0.59667   0.61053   0.61706
 Alpha virt. eigenvalues --    0.62728   0.63404   0.65503   0.68587   0.71057
 Alpha virt. eigenvalues --    0.71773   0.73058   0.73935   0.76041   0.77063
 Alpha virt. eigenvalues --    0.78082   0.81739   0.83648   0.84902   0.87528
 Alpha virt. eigenvalues --    0.88579   0.91720   0.93495   0.96379   0.97702
 Alpha virt. eigenvalues --    0.98556   1.04634   1.06259   1.09550   1.11271
 Alpha virt. eigenvalues --    1.12576   1.15634   1.18814   1.19408   1.21557
 Alpha virt. eigenvalues --    1.24922   1.26910   1.31049   1.35298   1.36503
 Alpha virt. eigenvalues --    1.38168   1.38550   1.42001   1.42818   1.43685
 Alpha virt. eigenvalues --    1.43827   1.46558   1.47667   1.48947   1.50160
 Alpha virt. eigenvalues --    1.51086   1.53371   1.54139   1.54705   1.55823
 Alpha virt. eigenvalues --    1.56337   1.58834   1.59156   1.60925   1.62056
 Alpha virt. eigenvalues --    1.64174   1.64984   1.66401   1.67554   1.69739
 Alpha virt. eigenvalues --    1.70858   1.74207   1.74878   1.75736   1.77089
 Alpha virt. eigenvalues --    1.77801   1.78972   1.81694   1.84467   1.90744
 Alpha virt. eigenvalues --    1.94454   1.96877   1.99069   1.99112   1.99609
 Alpha virt. eigenvalues --    2.02081   2.06832   2.07498   2.08496   2.09326
 Alpha virt. eigenvalues --    2.13436   2.14417   2.15931   2.19394   2.21214
 Alpha virt. eigenvalues --    2.21925   2.25541   2.26537   2.27757   2.28599
 Alpha virt. eigenvalues --    2.30609   2.32664   2.34758   2.36900   2.38260
 Alpha virt. eigenvalues --    2.39712   2.42846   2.43419   2.44538   2.45679
 Alpha virt. eigenvalues --    2.47033   2.49671   2.50525   2.51980   2.52487
 Alpha virt. eigenvalues --    2.53352   2.54369   2.56344   2.57233   2.59912
 Alpha virt. eigenvalues --    2.60236   2.61783   2.62759   2.65208   2.67058
 Alpha virt. eigenvalues --    2.68044   2.69036   2.69175   2.72672   2.76603
 Alpha virt. eigenvalues --    2.77583   2.81627   2.84693   2.86374   2.88672
 Alpha virt. eigenvalues --    2.91023   2.91458   2.97485   2.99363   3.08278
 Alpha virt. eigenvalues --    3.09666   3.18184   3.19860   3.28041   3.31482
 Alpha virt. eigenvalues --    3.53143   3.55305   3.59546   3.64874   3.68946
 Alpha virt. eigenvalues --    3.73730   3.75705   3.78700   3.80608   3.80698
 Alpha virt. eigenvalues --    3.84485   3.88366   3.90411   3.94367   4.02358
 Alpha virt. eigenvalues --    4.04201   4.19694   4.58507   4.70491   4.93483
 Alpha virt. eigenvalues --    4.95856   5.22969   7.88869  17.29115  17.38990
 Alpha virt. eigenvalues --   17.68903  23.69253  23.81241  23.85544  23.88358
 Alpha virt. eigenvalues --   23.91480  23.98339  24.13353  35.43242  35.57872
 Alpha virt. eigenvalues --   35.81604 189.03515
          Condensed to atoms (all electrons):
               1          2          3          4          5          6
     1  C    4.851709   0.356602  -0.047624   0.004488  -0.001027   0.000107
     2  C    0.356602   5.120527   0.258729  -0.043115   0.006760   0.003751
     3  N   -0.047624   0.258729   6.464352   0.422950  -0.063401  -0.058838
     4  C    0.004488  -0.043115   0.422950   4.828501   0.574656  -0.063105
     5  C   -0.001027   0.006760  -0.063401   0.574656   4.835703   0.418935
     6  N    0.000107   0.003751  -0.058838  -0.063105   0.418935   6.430581
     7  C   -0.010062  -0.074168   0.427824  -0.134715  -0.137122   0.445358
     8  C    0.000012  -0.000087   0.004424   0.007219  -0.046129   0.261752
     9  C   -0.000032   0.005029  -0.003070   0.000253   0.000878  -0.005928
    10  N    0.000060   0.000791   0.000118   0.000033   0.000131  -0.008506
    11  S   -0.001181  -0.131061  -0.012880  -0.000247  -0.000175  -0.000344
    12  H    0.399682  -0.040485   0.001495   0.001648  -0.000305  -0.000172
    13  H    0.402735  -0.028987   0.005213  -0.000246   0.000025   0.000000
    14  H    0.403989  -0.034626  -0.005842  -0.000741   0.000285   0.000076
    15  H   -0.039502   0.333437  -0.037459  -0.000624   0.000527   0.000738
    16  H   -0.035983   0.395585  -0.025313  -0.009869   0.001563  -0.000249
    17  H    0.000297  -0.005505  -0.029260   0.416469  -0.031831   0.002985
    18  H    0.000010  -0.000123   0.003130  -0.030844   0.414614  -0.029407
    19  H    0.002261   0.002205  -0.020490   0.005743   0.000048  -0.025293
    20  H   -0.000004  -0.000016   0.000536  -0.000530   0.002677  -0.022298
    21  H   -0.000000   0.000022  -0.000294   0.001341  -0.008762  -0.022261
    22  H   -0.000005  -0.000021   0.000048  -0.000591   0.001911  -0.030898
               7          8          9         10         11         12
     1  C   -0.010062   0.000012  -0.000032   0.000060  -0.001181   0.399682
     2  C   -0.074168  -0.000087   0.005029   0.000791  -0.131061  -0.040485
     3  N    0.427824   0.004424  -0.003070   0.000118  -0.012880   0.001495
     4  C   -0.134715   0.007219   0.000253   0.000033  -0.000247   0.001648
     5  C   -0.137122  -0.046129   0.000878   0.000131  -0.000175  -0.000305
     6  N    0.445358   0.261752  -0.005928  -0.008506  -0.000344  -0.000172
     7  C    4.820749  -0.056484  -0.004754  -0.002211   0.026218  -0.000932
     8  C   -0.056484   4.887412  -0.001308  -0.041869  -0.000956   0.000001
     9  C   -0.004754  -0.001308   4.803548   0.840236   0.306755   0.000017
    10  N   -0.002211  -0.041869   0.840236   6.680941  -0.085888   0.000011
    11  S    0.026218  -0.000956   0.306755  -0.085888  16.162122  -0.001256
    12  H   -0.000932   0.000001   0.000017   0.000011  -0.001256   0.590794
    13  H    0.000088  -0.000000   0.000004   0.000001   0.000222  -0.024129
    14  H    0.007613   0.000015  -0.000156  -0.000243   0.004905  -0.033951
    15  H   -0.001330  -0.000051  -0.009836  -0.001192   0.100947   0.006874
    16  H    0.008429   0.000018  -0.000022  -0.000022   0.005529  -0.007846
    17  H    0.007511  -0.000157  -0.000001  -0.000001   0.000328   0.000141
    18  H    0.007275  -0.005186   0.000030   0.000046  -0.000090   0.000001
    19  H    0.394355  -0.001137  -0.005032   0.021784  -0.017162   0.000426
    20  H   -0.007300   0.370767  -0.005854   0.068145   0.001644  -0.000002
    21  H    0.006634   0.398606   0.000195   0.001001  -0.000065   0.000000
    22  H   -0.003969   0.398949   0.000135   0.000673  -0.000094   0.000008
              13         14         15         16         17         18
     1  C    0.402735   0.403989  -0.039502  -0.035983   0.000297   0.000010
     2  C   -0.028987  -0.034626   0.333437   0.395585  -0.005505  -0.000123
     3  N    0.005213  -0.005842  -0.037459  -0.025313  -0.029260   0.003130
     4  C   -0.000246  -0.000741  -0.000624  -0.009869   0.416469  -0.030844
     5  C    0.000025   0.000285   0.000527   0.001563  -0.031831   0.414614
     6  N    0.000000   0.000076   0.000738  -0.000249   0.002985  -0.029407
     7  C    0.000088   0.007613  -0.001330   0.008429   0.007511   0.007275
     8  C   -0.000000   0.000015  -0.000051   0.000018  -0.000157  -0.005186
     9  C    0.000004  -0.000156  -0.009836  -0.000022  -0.000001   0.000030
    10  N    0.000001  -0.000243  -0.001192  -0.000022  -0.000001   0.000046
    11  S    0.000222   0.004905   0.100947   0.005529   0.000328  -0.000090
    12  H   -0.024129  -0.033951   0.006874  -0.007846   0.000141   0.000001
    13  H    0.543255  -0.020814  -0.002715  -0.004093  -0.000032  -0.000001
    14  H   -0.020814   0.563843  -0.006500   0.007816  -0.000026   0.000002
    15  H   -0.002715  -0.006500   0.486528  -0.019106  -0.000111   0.000011
    16  H   -0.004093   0.007816  -0.019106   0.567960   0.001694  -0.000002
    17  H   -0.000032  -0.000026  -0.000111   0.001694   0.498974  -0.000839
    18  H   -0.000001   0.000002   0.000011  -0.000002  -0.000839   0.499613
    19  H   -0.000070  -0.001246  -0.003852  -0.000395  -0.000063  -0.000180
    20  H   -0.000000  -0.000001  -0.000061   0.000005  -0.000001   0.000073
    21  H    0.000000  -0.000001  -0.000008  -0.000002  -0.000012   0.001561
    22  H    0.000000  -0.000006   0.000014  -0.000002   0.000012   0.000229
              19         20         21         22
     1  C    0.002261  -0.000004  -0.000000  -0.000005
     2  C    0.002205  -0.000016   0.000022  -0.000021
     3  N   -0.020490   0.000536  -0.000294   0.000048
     4  C    0.005743  -0.000530   0.001341  -0.000591
     5  C    0.000048   0.002677  -0.008762   0.001911
     6  N   -0.025293  -0.022298  -0.022261  -0.030898
     7  C    0.394355  -0.007300   0.006634  -0.003969
     8  C   -0.001137   0.370767   0.398606   0.398949
     9  C   -0.005032  -0.005854   0.000195   0.000135
    10  N    0.021784   0.068145   0.001001   0.000673
    11  S   -0.017162   0.001644  -0.000065  -0.000094
    12  H    0.000426  -0.000002   0.000000   0.000008
    13  H   -0.000070  -0.000000   0.000000   0.000000
    14  H   -0.001246  -0.000001  -0.000001  -0.000006
    15  H   -0.003852  -0.000061  -0.000008   0.000014
    16  H   -0.000395   0.000005  -0.000002  -0.000002
    17  H   -0.000063  -0.000001  -0.000012   0.000012
    18  H   -0.000180   0.000073   0.001561   0.000229
    19  H    0.449830  -0.000959   0.000166   0.000041
    20  H   -0.000959   0.426805  -0.014817  -0.017382
    21  H    0.000166  -0.014817   0.547699  -0.028665
    22  H    0.000041  -0.017382  -0.028665   0.546115
 Mulliken charges:
               1
     1  C   -0.286533
     2  C   -0.125243
     3  N   -0.284350
     4  C    0.021327
     5  C    0.030038
     6  N   -0.296985
     7  C    0.280992
     8  C   -0.175810
     9  C    0.078910
    10  N   -0.474039
    11  S   -0.357272
    12  H    0.107981
    13  H    0.129543
    14  H    0.115610
    15  H    0.193271
    16  H    0.114304
    17  H    0.139426
    18  H    0.140077
    19  H    0.199020
    20  H    0.198573
    21  H    0.117663
    22  H    0.133497
 Sum of Mulliken charges =  -0.00000
 Mulliken charges with hydrogens summed into heavy atoms:
               1
     1  C    0.066602
     2  C    0.182332
     3  N   -0.284350
     4  C    0.160753
     5  C    0.170115
     6  N   -0.296985
     7  C    0.480011
     8  C    0.273923
     9  C    0.078910
    10  N   -0.474039
    11  S   -0.357272
 Electronic spatial extent (au):  <R**2>=           2056.2146
 Charge=              0.0000 electrons
 Dipole moment (field-independent basis, Debye):
    X=              5.7165    Y=             -8.2742    Z=              0.1945  Tot=             10.0588
 Quadrupole moment (field-independent basis, Debye-Ang):
   XX=            -68.4182   YY=            -84.3483   ZZ=            -72.8087
   XY=              8.5911   XZ=             -4.3304   YZ=              2.9159
 Traceless Quadrupole moment (field-independent basis, Debye-Ang):
   XX=              6.7735   YY=             -9.1566   ZZ=              2.3830
   XY=              8.5911   XZ=             -4.3304   YZ=              2.9159
 Octapole moment (field-independent basis, Debye-Ang**2):
  XXX=             56.4001  YYY=            -58.1970  ZZZ=              4.4106  XYY=              7.6351
  XXY=            -16.3500  XXZ=             -1.3368  XZZ=             12.2980  YZZ=            -15.2033
  YYZ=            -14.2492  XYZ=              0.2017
 Hexadecapole moment (field-independent basis, Debye-Ang**3):
 XXXX=          -1245.5707 YYYY=          -1268.6227 ZZZZ=           -356.5788 XXXY=             81.8868
 XXXZ=            -26.5805 YYYX=             29.4849 YYYZ=              4.0872 ZZZX=             -9.5191
 ZZZY=             21.3180 XXYY=           -427.5783 XXZZ=           -263.5787 YYZZ=           -257.9837
 XXYZ=             19.8729 YYXZ=            -16.1265 ZZXY=              5.3155
 N-N= 6.984200944889D+02 E-N=-3.361506516904D+03  KE= 8.339101809359D+02
 Calling FoFJK, ICntrl=      2127 FMM=F ISym2X=0 I1Cent= 0 IOpClX= 0 NMat=1 NMatS=1 NMatT=0.
 ***** Axes restored to original set *****
 -------------------------------------------------------------------
 Center     Atomic                   Forces (Hartrees/Bohr)
 Number     Number              X              Y              Z
 -------------------------------------------------------------------
      1        6          -0.000660564    0.002817176   -0.002725002
      2        6           0.019357609   -0.009365168    0.001334885
      3        7          -0.004369226   -0.002711680   -0.000463610
      4        6          -0.003636756    0.004209074   -0.004350713
      5        6          -0.000550333    0.006992901   -0.007378972
      6        7           0.000867900   -0.005310247    0.005397988
      7        6          -0.003344535    0.008930673    0.001196070
      8        6          -0.006923482   -0.007160623    0.005552360
      9        6          -0.013512633   -0.011141023    0.006405384
     10        7           0.000180522   -0.005396504    0.002758479
     11       16           0.016197452   -0.013906855   -0.014487095
     12        1           0.000804277    0.001929691    0.002401613
     13        1           0.001438008   -0.000527417    0.001678716
     14        1           0.001677360   -0.001052041    0.002223555
     15        1           0.000436961    0.026611675    0.003525497
     16        1          -0.002313111   -0.000148790    0.000189320
     17        1           0.000116772   -0.000672287   -0.000264862
     18        1           0.000124241   -0.000093803    0.000250618
     19        1          -0.000287752    0.000009536   -0.002892575
     20        1          -0.003607231    0.004218696   -0.000197253
     21        1          -0.000094254    0.001114968   -0.000119328
     22        1          -0.001901224    0.000652050   -0.000035075
 -------------------------------------------------------------------
 Cartesian Forces:  Max     0.026611675 RMS     0.006497591

 GradGradGradGradGradGradGradGradGradGradGradGradGradGradGradGradGradGrad
 Berny optimization.
 FormGI is forming the generalized inverse of G from B-inverse, IUseBI=4.
 Internal  Forces:  Max     0.023689807 RMS     0.004565195
 Search for a local minimum.
 Step number   1 out of a maximum of  122
 All quantities printed in internal units (Hartrees-Bohrs-Radians)
 Mixed Optimization -- RFO/linear search
 Second derivative matrix not updated -- first step.
 ITU=  0
     Eigenvalues ---    0.00241   0.00293   0.00498   0.00668   0.01043
     Eigenvalues ---    0.01769   0.01959   0.02047   0.02216   0.02298
     Eigenvalues ---    0.02445   0.02538   0.03159   0.04420   0.04663
     Eigenvalues ---    0.05335   0.05649   0.05774   0.05861   0.06389
     Eigenvalues ---    0.06836   0.07735   0.07986   0.10694   0.11649
     Eigenvalues ---    0.13116   0.15997   0.15999   0.16000   0.16000
     Eigenvalues ---    0.16000   0.16000   0.16439   0.17343   0.19988
     Eigenvalues ---    0.21587   0.22663   0.23207   0.24027   0.29417
     Eigenvalues ---    0.30343   0.33239   0.34602   0.34720   0.34745
     Eigenvalues ---    0.34864   0.34907   0.35054   0.36490   0.36518
     Eigenvalues ---    0.36543   0.36773   0.37995   0.45137   0.45302
     Eigenvalues ---    0.46343   0.51539   0.54897   0.56559   1.16562
 RFO step:  Lambda=-1.60173672D-02 EMin= 2.41064407D-03
 Linear search not attempted -- first point.
 Maximum step size (   0.300) exceeded in Quadratic search.
    -- Step size scaled by   0.714
 Iteration  1 RMS(Cart)=  0.04710329 RMS(Int)=  0.00421249
 Iteration  2 RMS(Cart)=  0.00518935 RMS(Int)=  0.00022087
 Iteration  3 RMS(Cart)=  0.00001017 RMS(Int)=  0.00022080
 Iteration  4 RMS(Cart)=  0.00000000 RMS(Int)=  0.00022080
 Variable       Old X    -DE/DX   Delta X   Delta X   Delta X     New X
                                 (Linear)    (Quad)   (Total)
    R1        2.87285   0.00520   0.00000   0.01163   0.01163   2.88448
    R2        2.06132   0.00221   0.00000   0.00435   0.00435   2.06567
    R3        2.05826   0.00140   0.00000   0.00273   0.00273   2.06099
    R4        2.05897   0.00167   0.00000   0.00328   0.00328   2.06225
    R5        2.73975   0.01736   0.00000   0.03005   0.02974   2.76949
    R6        2.15601  -0.00381   0.00000  -0.00947  -0.00949   2.14652
    R7        2.06326  -0.00103   0.00000  -0.00203  -0.00203   2.06123
    R8        2.59047   0.00797   0.00000   0.01067   0.01066   2.60112
    R9        2.52496   0.00163   0.00000   0.00130   0.00109   2.52606
   R10        2.57224   0.00366   0.00000   0.00508   0.00507   2.57731
   R11        2.03280  -0.00023   0.00000  -0.00043  -0.00043   2.03237
   R12        2.58075   0.01086   0.00000   0.01485   0.01486   2.59561
   R13        2.03322  -0.00025   0.00000  -0.00046  -0.00046   2.03276
   R14        2.52460   0.00092   0.00000   0.00043   0.00017   2.52477
   R15        2.74642   0.01091   0.00000   0.01914   0.01888   2.76531
   R16        2.03241  -0.00223   0.00000  -0.00417  -0.00417   2.02824
   R17        2.08360   0.00389   0.00000   0.00871   0.00878   2.09239
   R18        2.05587   0.00022   0.00000   0.00042   0.00042   2.05629
   R19        2.06091   0.00073   0.00000   0.00144   0.00144   2.06234
   R20        2.21814   0.00677   0.00000   0.00429   0.00456   2.22270
   R21        3.07072   0.02357   0.00000   0.03557   0.03585   3.10657
   R22        3.73020   0.00943   0.00000   0.11716   0.11739   3.84758
   R23        3.85953   0.02369   0.00000   0.24405   0.24413   4.10367
    A1        1.93637   0.00289   0.00000   0.01395   0.01388   1.95025
    A2        1.90188   0.00105   0.00000   0.00246   0.00245   1.90433
    A3        1.93191   0.00180   0.00000   0.00691   0.00686   1.93877
    A4        1.89972  -0.00177   0.00000  -0.00626  -0.00629   1.89342
    A5        1.89835  -0.00174   0.00000  -0.00368  -0.00378   1.89457
    A6        1.89489  -0.00241   0.00000  -0.01421  -0.01420   1.88069
    A7        1.95188   0.00412   0.00000   0.01589   0.01592   1.96780
    A8        1.93571   0.00091   0.00000   0.01102   0.01095   1.94666
    A9        1.94656  -0.00077   0.00000  -0.00411  -0.00411   1.94245
   A10        1.80713  -0.00158   0.00000   0.00140   0.00086   1.80799
   A11        1.89305  -0.00270   0.00000  -0.01932  -0.01920   1.87386
   A12        1.92441  -0.00009   0.00000  -0.00518  -0.00504   1.91937
   A13        2.20887   0.00274   0.00000   0.00851   0.00891   2.21778
   A14        2.14148   0.00062   0.00000   0.00225   0.00170   2.14318
   A15        1.89871  -0.00331   0.00000  -0.00992  -0.00979   1.88892
   A16        1.86883   0.00065   0.00000   0.00259   0.00240   1.87123
   A17        2.12952  -0.00042   0.00000  -0.00169  -0.00162   2.12790
   A18        2.28483  -0.00023   0.00000  -0.00091  -0.00084   2.28399
   A19        1.86683   0.00045   0.00000   0.00302   0.00284   1.86968
   A20        2.28372  -0.00008   0.00000  -0.00097  -0.00093   2.28279
   A21        2.13261  -0.00037   0.00000  -0.00214  -0.00210   2.13051
   A22        1.90468  -0.00435   0.00000  -0.01196  -0.01188   1.89280
   A23        2.21646   0.00338   0.00000   0.00747   0.00766   2.22412
   A24        2.15472   0.00097   0.00000   0.00463   0.00435   2.15907
   A25        1.88540   0.00661   0.00000   0.01689   0.01667   1.90207
   A26        2.21448  -0.00335   0.00000  -0.00844  -0.00865   2.20583
   A27        2.18318  -0.00322   0.00000  -0.00790  -0.00812   2.17507
   A28        1.86279   0.00175   0.00000   0.02161   0.02116   1.88394
   A29        1.90535  -0.00173   0.00000  -0.01271  -0.01268   1.89267
   A30        1.91669   0.00058   0.00000   0.00247   0.00247   1.91916
   A31        1.93494  -0.00025   0.00000  -0.00745  -0.00733   1.92760
   A32        1.92045   0.00042   0.00000   0.00614   0.00614   1.92659
   A33        1.92266  -0.00071   0.00000  -0.00924  -0.00929   1.91337
   A34        2.24068  -0.00141   0.00000   0.01168   0.01247   2.25315
   A35        1.82539   0.00371   0.00000   0.02891   0.02957   1.85496
   A36        2.76976   0.00426   0.00000   0.01677   0.01656   2.78632
   A37        2.51910   0.00581   0.00000   0.02881   0.02901   2.54812
   A38        3.11735  -0.00885   0.00000  -0.08843  -0.08798   3.02937
   A39        3.13447  -0.00093   0.00000  -0.02157  -0.02188   3.11258
    D1       -1.05878   0.00060   0.00000   0.01229   0.01217  -1.04661
    D2       -3.06642  -0.00051   0.00000  -0.00596  -0.00588  -3.07229
    D3        1.06455  -0.00051   0.00000  -0.00429  -0.00431   1.06024
    D4        3.13310   0.00033   0.00000   0.00987   0.00976  -3.14033
    D5        1.12547  -0.00078   0.00000  -0.00838  -0.00829   1.11717
    D6       -1.02676  -0.00078   0.00000  -0.00671  -0.00673  -1.03348
    D7        1.05048   0.00155   0.00000   0.02161   0.02153   1.07201
    D8       -0.95716   0.00044   0.00000   0.00336   0.00348  -0.95368
    D9       -3.10938   0.00044   0.00000   0.00502   0.00505  -3.10433
   D10        2.28046  -0.00028   0.00000  -0.00592  -0.00599   2.27447
   D11       -1.17063  -0.00062   0.00000  -0.00386  -0.00399  -1.17462
   D12       -1.91762   0.00193   0.00000   0.01601   0.01587  -1.90174
   D13        0.91448   0.00159   0.00000   0.01808   0.01787   0.93235
   D14        0.12660  -0.00015   0.00000   0.00226   0.00224   0.12884
   D15        2.95870  -0.00049   0.00000   0.00432   0.00424   2.96294
   D16        2.04242   0.00172   0.00000   0.01836   0.01842   2.06084
   D17       -0.05374  -0.00268   0.00000  -0.00674  -0.00664  -0.06038
   D18       -2.07585   0.00132   0.00000   0.01717   0.01724  -2.05860
   D19        2.88702  -0.00092   0.00000  -0.00811  -0.00820   2.87882
   D20       -0.25339  -0.00005   0.00000   0.00169   0.00157  -0.25182
   D21        0.01958  -0.00105   0.00000  -0.01128  -0.01118   0.00841
   D22       -3.12082  -0.00018   0.00000  -0.00148  -0.00140  -3.12223
   D23       -2.90492   0.00117   0.00000   0.01899   0.01920  -2.88572
   D24        0.25247  -0.00124   0.00000  -0.01824  -0.01823   0.23424
   D25       -0.02471   0.00173   0.00000   0.02331   0.02350  -0.00121
   D26        3.13268  -0.00068   0.00000  -0.01392  -0.01393   3.11875
   D27       -0.00694  -0.00013   0.00000  -0.00511  -0.00520  -0.01214
   D28       -3.14075   0.00083   0.00000   0.00935   0.00933  -3.13141
   D29        3.13332  -0.00111   0.00000  -0.01611  -0.01617   3.11716
   D30       -0.00048  -0.00015   0.00000  -0.00165  -0.00164  -0.00212
   D31       -0.00812   0.00126   0.00000   0.01972   0.01971   0.01160
   D32       -3.02252   0.00136   0.00000   0.01831   0.01844  -3.00409
   D33        3.12652   0.00040   0.00000   0.00680   0.00673   3.13325
   D34        0.11211   0.00050   0.00000   0.00539   0.00546   0.11757
   D35        0.02038  -0.00182   0.00000  -0.02665  -0.02683  -0.00645
   D36       -3.13666   0.00053   0.00000   0.00973   0.00977  -3.12688
   D37        3.04024  -0.00169   0.00000  -0.02499  -0.02526   3.01498
   D38       -0.11679   0.00066   0.00000   0.01139   0.01135  -0.10545
   D39        2.26550  -0.00114   0.00000  -0.02363  -0.02389   2.24161
   D40        0.17317  -0.00090   0.00000  -0.02020  -0.02018   0.15299
   D41       -1.93645   0.00070   0.00000  -0.00239  -0.00246  -1.93891
   D42       -0.73196  -0.00071   0.00000  -0.02418  -0.02433  -0.75629
   D43       -2.82428  -0.00047   0.00000  -0.02075  -0.02063  -2.84491
   D44        1.34928   0.00113   0.00000  -0.00294  -0.00291   1.34637
   D45        0.19350   0.00091   0.00000  -0.00834  -0.00806   0.18544
   D46        2.26664  -0.00026   0.00000  -0.01480  -0.01480   2.25185
   D47       -1.88530  -0.00104   0.00000  -0.02728  -0.02726  -1.91255
   D48        0.79442  -0.00394   0.00000  -0.04486  -0.04385   0.75057
   D49       -0.52214  -0.00026   0.00000  -0.01704  -0.01649  -0.53863
   D50       -0.53109  -0.00061   0.00000   0.00287   0.00330  -0.52779
         Item               Value     Threshold  Converged?
 Maximum Force            0.023690     0.000450     NO 
 RMS     Force            0.004565     0.000300     NO 
 Maximum Displacement     0.322356     0.001800     NO 
 RMS     Displacement     0.050967     0.001200     NO 
 Predicted change in Energy=-8.161980D-03
 GradGradGradGradGradGradGradGradGradGradGradGradGradGradGradGradGradGrad

                          Input orientation:                          
 ---------------------------------------------------------------------
 Center     Atomic      Atomic             Coordinates (Angstroms)
 Number     Number       Type             X           Y           Z
 ---------------------------------------------------------------------
      1          6           0        2.361697    1.540422    1.241916
      2          6           0        1.757581    1.154050   -0.105547
      3          7           0        0.294382    1.236541   -0.115115
      4          6           0       -0.494873    1.869379   -1.048505
      5          6           0       -1.770411    1.421184   -0.869010
      6          7           0       -1.738360    0.511052    0.159212
      7          6           0       -0.481607    0.418751    0.603155
      8          6           0       -2.825836   -0.356330    0.613526
      9          6           0        0.206512   -2.427664   -0.033692
     10          7           0       -0.792832   -2.586562    0.565906
     11         16           0        1.595463   -2.024232   -0.815069
     12          1           0        2.105043    2.565465    1.521729
     13          1           0        3.447721    1.459779    1.182602
     14          1           0        2.020795    0.869162    2.031928
     15          1           0        1.965257    0.066480   -0.359132
     16          1           0        2.125248    1.799583   -0.904208
     17          1           0       -0.087655    2.567440   -1.758119
     18          1           0       -2.679162    1.658927   -1.393183
     19          1           0       -0.161103   -0.229452    1.396300
     20          1           0       -2.440260   -1.393438    0.655057
     21          1           0       -3.644826   -0.283585   -0.099223
     22          1           0       -3.168716   -0.038452    1.599641
 ---------------------------------------------------------------------
                    Distance matrix (angstroms):
                    1          2          3          4          5
     1  C    0.000000
     2  C    1.526399   0.000000
     3  N    2.491518   1.465553   0.000000
     4  C    3.676171   2.544487   1.376454   0.000000
     5  C    4.641610   3.619526   2.205861   1.363853   0.000000
     6  N    4.363750   3.564428   2.175691   2.202247   1.373539
     7  C    3.122584   2.461074   1.336732   2.198290   2.198445
     8  C    5.559050   4.879142   3.578256   3.626226   2.543893
     9  C    4.692302   3.903799   3.666163   4.470611   4.406769
    10  N    5.238324   4.576859   4.032611   4.748738   4.367686
    11  S    4.186294   3.260549   3.579859   4.425404   4.816940
    12  H    1.093106   2.181937   2.779170   3.721586   4.695121
    13  H    1.090629   2.146945   3.417228   4.548589   5.607094
    14  H    1.091293   2.172381   2.779435   4.100986   4.805561
    15  H    2.212018   1.135889   2.054364   3.126967   4.006297
    16  H    2.174608   1.090757   2.071654   2.625020   3.914152
    17  H    4.006782   2.851940   2.148653   1.075485   2.221731
    18  H    5.689293   4.647322   3.264022   2.221309   1.075689
    19  H    3.085580   2.801959   2.154293   3.239377   3.232043
    20  H    5.657802   4.968912   3.871463   4.163247   3.270104
    21  H    6.419032   5.590424   4.222369   3.931742   2.648064
    22  H    5.762488   5.347722   4.069281   4.219234   3.190616
                    6          7          8          9         10
     6  N    0.000000
     7  C    1.336052   0.000000
     8  C    1.463337   2.469062   0.000000
     9  C    3.529276   2.996858   3.728867   0.000000
    10  N    3.264144   3.021615   3.018163   1.176204   0.000000
    11  S    4.300147   3.506243   4.936666   1.643926   2.815539
    12  H    4.566051   3.484669   5.803041   5.563730   5.987877
    13  H    5.370554   4.105986   6.555884   5.205480   5.893682
    14  H    4.215040   2.916552   5.196492   4.292723   4.691242
    15  H    3.766047   2.652778   4.907077   3.069177   3.937180
    16  H    4.209352   3.312783   5.609341   4.723236   5.469433
    17  H    3.260325   3.216781   4.655188   5.292565   5.697554
    18  H    2.147709   3.217554   2.847745   5.184164   5.041870
    19  H    2.136931   1.073298   2.780222   2.648047   2.577713
    20  H    2.089404   2.668904   1.107243   2.923935   2.036053
    21  H    2.081550   3.315504   1.088140   4.408421   3.725584
    22  H    2.103023   2.902167   1.091346   4.446152   3.634047
                   11         12         13         14         15
    11  S    0.000000
    12  H    5.175482   0.000000
    13  H    4.422656   1.772098   0.000000
    14  H    4.081424   1.773371   1.762470   0.000000
    15  H    2.171567   3.130831   2.552631   2.522805   0.000000
    16  H    3.861370   2.544043   2.493828   3.081799   1.823828
    17  H    4.980531   3.945292   4.730078   4.657700   3.525112
    18  H    5.672064   5.675134   6.649288   5.868962   5.017548
    19  H    3.346179   3.600377   3.990337   2.524214   2.773180
    20  H    4.341225   6.089648   6.564105   5.188077   4.750634
    21  H    5.568027   6.618578   7.415297   6.161972   5.627001
    22  H    5.698381   5.882091   6.796754   5.285987   5.495951
                   16         17         18         19         20
    16  H    0.000000
    17  H    2.493132   0.000000
    18  H    4.831277   2.770287   0.000000
    19  H    3.825797   4.216440   4.205688   0.000000
    20  H    5.785374   5.200647   3.683652   2.664369   0.000000
    21  H    6.187192   4.851160   2.525904   3.791549   1.803245
    22  H    6.137889   5.249587   3.475306   3.020523   1.805235
                   21         22
    21  H    0.000000
    22  H    1.781266   0.000000
 Stoichiometry    C7H11N3S
 Framework group  C1[X(C7H11N3S)]
 Deg. of freedom    60
 Full point group                 C1      NOp   1
 Largest Abelian subgroup         C1      NOp   1
 Largest concise Abelian subgroup C1      NOp   1
                         Standard orientation:                         
 ---------------------------------------------------------------------
 Center     Atomic      Atomic             Coordinates (Angstroms)
 Number     Number       Type             X           Y           Z
 ---------------------------------------------------------------------
      1          6           0       -1.264643   -2.558451    1.258254
      2          6           0       -0.950520   -1.908572   -0.086692
      3          7           0        0.378154   -1.291087   -0.121119
      4          6           0        1.346847   -1.459942   -1.084315
      5          6           0        2.265196   -0.466503   -0.911661
      6          7           0        1.836059    0.302205    0.142634
      7          6           0        0.696552   -0.217121    0.608313
      8          6           0        2.398577    1.571556    0.604885
      9          6           0       -1.268260    1.979352    0.064090
     10          7           0       -0.445766    2.579897    0.652566
     11         16           0       -2.323996    0.982766   -0.707098
     12          1           0       -0.547911   -3.346178    1.504548
     13          1           0       -2.261765   -2.998449    1.217983
     14          1           0       -1.258884   -1.820153    2.061873
     15          1           0       -1.652814   -1.043097   -0.305731
     16          1           0       -0.992231   -2.636655   -0.897807
     17          1           0        1.297421   -2.254596   -1.807330
     18          1           0        3.164217   -0.238071   -1.456352
     19          1           0        0.130110    0.188876    1.424572
     20          1           0        1.571198    2.303315    0.682092
     21          1           0        3.135623    1.906532   -0.122165
     22          1           0        2.877345    1.435192    1.576081
 ---------------------------------------------------------------------
 Rotational constants (GHZ):           0.9952528           0.8725602           0.5618230
 Standard basis: 6-311G(2d,d,p) (5D, 7F)
 There are   289 symmetry adapted cartesian basis functions of A   symmetry.
 There are   277 symmetry adapted basis functions of A   symmetry.
   277 basis functions,   460 primitive gaussians,   289 cartesian basis functions
    45 alpha electrons       45 beta electrons
       nuclear repulsion energy       687.7139500639 Hartrees.
 NAtoms=   22 NActive=   22 NUniq=   22 SFac= 1.00D+00 NAtFMM=   60 NAOKFM=F Big=F
 Integral buffers will be    131072 words long.
 Raffenetti 2 integral format.
 Two-electron integral symmetry is turned on.
 One-electron integrals computed using PRISM.
 NBasis=   277 RedAO= T EigKep=  8.30D-04  NBF=   277
 NBsUse=   277 1.00D-06 EigRej= -1.00D+00 NBFU=   277
 Initial guess from the checkpoint file:  "c2c1im_scn.chk"
 B after Tr=     0.000000    0.000000   -0.000000
         Rot=    0.994414   -0.006310   -0.000993   -0.105357 Ang= -12.12 deg.
 ExpMin= 7.71D-02 ExpMax= 9.34D+04 ExpMxC= 3.17D+03 IAcc=3 IRadAn=         5 AccDes= 0.00D+00
 Harris functional with IExCor=  402 and IRadAn=       5 diagonalized for initial guess.
 HarFok:  IExCor=  402 AccDes= 0.00D+00 IRadAn=         5 IDoV= 1 UseB2=F ITyADJ=14
 ICtDFT=  3500011 ScaDFX=  1.000000  1.000000  1.000000  1.000000
 FoFCou: FMM=F IPFlag=           0 FMFlag=      100000 FMFlg1=           0
         NFxFlg=           0 DoJE=T BraDBF=F KetDBF=T FulRan=T
         wScrn=  0.000000 ICntrl=       500 IOpCl=  0 I1Cent=   200000004 NGrid=           0
         NMat0=    1 NMatS0=      1 NMatT0=    0 NMatD0=    1 NMtDS0=    0 NMtDT0=    0
 Petite list used in FoFCou.
 Requested convergence on RMS density matrix=1.00D-08 within 128 cycles.
 Requested convergence on MAX density matrix=1.00D-06.
 Requested convergence on             energy=1.00D-06.
 No special actions if energy rises.
 Integral accuracy reduced to 1.0D-05 until final iterations.
 Initial convergence to 1.0D-05 achieved.  Increase integral accuracy.
 SCF Done:  E(RB3LYP) =  -835.922425736     A.U. after   11 cycles
            NFock= 11  Conv=0.80D-08     -V/T= 2.0027
 Calling FoFJK, ICntrl=      2127 FMM=F ISym2X=0 I1Cent= 0 IOpClX= 0 NMat=1 NMatS=1 NMatT=0.
 ***** Axes restored to original set *****
 -------------------------------------------------------------------
 Center     Atomic                   Forces (Hartrees/Bohr)
 Number     Number              X              Y              Z
 -------------------------------------------------------------------
      1        6          -0.002359364    0.001318924   -0.002042968
      2        6           0.012443759   -0.009888804    0.000799957
      3        7          -0.005329683   -0.002430317    0.001404999
      4        6          -0.002983357    0.001244377   -0.001520992
      5        6           0.001275679    0.002875985   -0.004847026
      6        7           0.003187447   -0.001724436    0.003816807
      7        6          -0.001663336    0.001579583   -0.001110215
      8        6          -0.004709984   -0.006289612    0.003274079
      9        6          -0.011045536    0.002946324    0.008450321
     10        7           0.003983107   -0.005293086   -0.001931200
     11       16           0.008141274   -0.011175168   -0.008494990
     12        1           0.000345866    0.000412790    0.000447345
     13        1           0.000515395   -0.000473416    0.000231237
     14        1           0.000887131   -0.000607363    0.000844006
     15        1          -0.000015124    0.022138400    0.003763234
     16        1          -0.001198812   -0.000108698   -0.000162761
     17        1          -0.000060423   -0.000198647   -0.000266183
     18        1           0.000016555    0.000067760    0.000045893
     19        1           0.001022756   -0.003145179   -0.001594813
     20        1          -0.001792701    0.007576783   -0.000591492
     21        1          -0.000116191    0.000662394   -0.000156742
     22        1          -0.000544458    0.000511407   -0.000358498
 -------------------------------------------------------------------
 Cartesian Forces:  Max     0.022138400 RMS     0.004848107

 GradGradGradGradGradGradGradGradGradGradGradGradGradGradGradGradGradGrad
 Berny optimization.
 Using GEDIIS/GDIIS optimizer.
 FormGI is forming the generalized inverse of G from B-inverse, IUseBI=4.
 Internal  Forces:  Max     0.011443464 RMS     0.002437223
 Search for a local minimum.
 Step number   2 out of a maximum of  122
 All quantities printed in internal units (Hartrees-Bohrs-Radians)
 Mixed Optimization -- RFO/linear search
 Update second derivatives using D2CorX and points    1    2
 DE= -7.14D-03 DEPred=-8.16D-03 R= 8.75D-01
 TightC=F SS=  1.41D+00  RLast= 3.19D-01 DXNew= 5.0454D-01 9.5729D-01
 Trust test= 8.75D-01 RLast= 3.19D-01 DXMaxT set to 5.05D-01
 ITU=  1  0
 Use linear search instead of GDIIS.
     Eigenvalues ---    0.00240   0.00289   0.00498   0.00655   0.01049
     Eigenvalues ---    0.01767   0.01986   0.02041   0.02208   0.02299
     Eigenvalues ---    0.02446   0.02465   0.03101   0.04316   0.04656
     Eigenvalues ---    0.04813   0.05525   0.05666   0.05819   0.06531
     Eigenvalues ---    0.07742   0.08014   0.09013   0.10842   0.11874
     Eigenvalues ---    0.13475   0.15964   0.15994   0.15995   0.15999
     Eigenvalues ---    0.16000   0.16017   0.17004   0.17433   0.19877
     Eigenvalues ---    0.22062   0.22639   0.23388   0.24040   0.29351
     Eigenvalues ---    0.30839   0.33880   0.34607   0.34740   0.34778
     Eigenvalues ---    0.34878   0.34928   0.35053   0.36286   0.36490
     Eigenvalues ---    0.36518   0.37092   0.37814   0.43842   0.45281
     Eigenvalues ---    0.46238   0.51181   0.54997   0.56571   1.17345
 RFO step:  Lambda=-8.60014231D-03 EMin= 2.40399954D-03
 Quartic linear search produced a step of  0.52448.
 Iteration  1 RMS(Cart)=  0.05973027 RMS(Int)=  0.01765970
 Iteration  2 RMS(Cart)=  0.02072582 RMS(Int)=  0.00035652
 Iteration  3 RMS(Cart)=  0.00012040 RMS(Int)=  0.00034435
 Iteration  4 RMS(Cart)=  0.00000006 RMS(Int)=  0.00034435
 Variable       Old X    -DE/DX   Delta X   Delta X   Delta X     New X
                                 (Linear)    (Quad)   (Total)
    R1        2.88448  -0.00054   0.00610  -0.00235   0.00375   2.88822
    R2        2.06567   0.00042   0.00228   0.00181   0.00409   2.06976
    R3        2.06099   0.00054   0.00143   0.00224   0.00367   2.06466
    R4        2.06225   0.00071   0.00172   0.00296   0.00468   2.06692
    R5        2.76949   0.00884   0.01560   0.03522   0.05099   2.82049
    R6        2.14652  -0.01122  -0.00498  -0.05622  -0.06102   2.08550
    R7        2.06123  -0.00035  -0.00106  -0.00148  -0.00254   2.05869
    R8        2.60112   0.00339   0.00559   0.00943   0.01513   2.61625
    R9        2.52606   0.00132   0.00057   0.00426   0.00473   2.53078
   R10        2.57731  -0.00148   0.00266  -0.00423  -0.00138   2.57593
   R11        2.03237   0.00002  -0.00022   0.00009  -0.00014   2.03224
   R12        2.59561   0.00469   0.00780   0.01356   0.02136   2.61697
   R13        2.03276  -0.00002  -0.00024  -0.00009  -0.00033   2.03243
   R14        2.52477   0.00048   0.00009   0.00259   0.00265   2.52743
   R15        2.76531   0.00402   0.00990   0.01749   0.02745   2.79276
   R16        2.02824   0.00103  -0.00219   0.00397   0.00178   2.03002
   R17        2.09239  -0.00449   0.00461  -0.01812  -0.01370   2.07868
   R18        2.05629   0.00023   0.00022   0.00096   0.00118   2.05747
   R19        2.06234  -0.00000   0.00075   0.00001   0.00076   2.06310
   R20        2.22270  -0.00180   0.00239  -0.00237  -0.00013   2.22258
   R21        3.10657   0.01123   0.01880   0.03423   0.05290   3.15946
   R22        3.84758   0.00364   0.06157   0.09654   0.15788   4.00546
   R23        4.10367   0.01144   0.12804   0.26068   0.38885   4.49252
    A1        1.95025   0.00073   0.00728   0.00930   0.01641   1.96666
    A2        1.90433  -0.00029   0.00128  -0.00541  -0.00411   1.90022
    A3        1.93877   0.00091   0.00360   0.00824   0.01169   1.95046
    A4        1.89342  -0.00023  -0.00330  -0.00240  -0.00570   1.88773
    A5        1.89457  -0.00039  -0.00198   0.00188  -0.00040   1.89417
    A6        1.88069  -0.00081  -0.00745  -0.01262  -0.02004   1.86065
    A7        1.96780   0.00051   0.00835   0.00644   0.01468   1.98249
    A8        1.94666   0.00005   0.00574   0.00417   0.00985   1.95651
    A9        1.94245   0.00008  -0.00216   0.00154  -0.00053   1.94193
   A10        1.80799  -0.00007   0.00045  -0.00572  -0.00550   1.80249
   A11        1.87386  -0.00083  -0.01007  -0.01673  -0.02674   1.84711
   A12        1.91937   0.00023  -0.00264   0.00938   0.00653   1.92590
   A13        2.21778  -0.00116   0.00467  -0.00650  -0.00167   2.21611
   A14        2.14318   0.00204   0.00089   0.01596   0.01696   2.16014
   A15        1.88892  -0.00078  -0.00514  -0.00546  -0.01102   1.87789
   A16        1.87123   0.00066   0.00126   0.00368   0.00474   1.87597
   A17        2.12790  -0.00020  -0.00085  -0.00060  -0.00142   2.12648
   A18        2.28399  -0.00046  -0.00044  -0.00286  -0.00327   2.28073
   A19        1.86968   0.00006   0.00149   0.00108   0.00224   1.87192
   A20        2.28279  -0.00004  -0.00049  -0.00040  -0.00083   2.28195
   A21        2.13051  -0.00001  -0.00110  -0.00015  -0.00120   2.12931
   A22        1.89280  -0.00077  -0.00623  -0.00500  -0.01159   1.88121
   A23        2.22412  -0.00075   0.00402  -0.00767  -0.00311   2.22102
   A24        2.15907   0.00149   0.00228   0.01186   0.01392   2.17300
   A25        1.90207   0.00084   0.00874   0.00595   0.01424   1.91631
   A26        2.20583  -0.00055  -0.00454  -0.00407  -0.00861   2.19722
   A27        2.17507  -0.00029  -0.00426  -0.00180  -0.00605   2.16902
   A28        1.88394  -0.00304   0.01110  -0.01980  -0.00992   1.87403
   A29        1.89267  -0.00022  -0.00665  -0.00615  -0.01252   1.88016
   A30        1.91916   0.00110   0.00130   0.00633   0.00784   1.92700
   A31        1.92760   0.00168  -0.00385   0.01063   0.00714   1.93475
   A32        1.92659   0.00092   0.00322   0.01092   0.01428   1.94087
   A33        1.91337  -0.00047  -0.00487  -0.00237  -0.00736   1.90602
   A34        2.25315  -0.00087   0.00654  -0.02259  -0.01774   2.23540
   A35        1.85496  -0.00315   0.01551  -0.06121  -0.04648   1.80847
   A36        2.78632  -0.00142   0.00868  -0.02131  -0.01276   2.77356
   A37        2.54812   0.00074   0.01522   0.00600   0.01930   2.56742
   A38        3.02937   0.00547  -0.04614   0.13337   0.08598   3.11535
   A39        3.11258   0.00214  -0.01148   0.08702   0.07585   3.18843
    D1       -1.04661   0.00013   0.00638   0.00448   0.01087  -1.03574
    D2       -3.07229  -0.00014  -0.00308   0.00479   0.00153  -3.07076
    D3        1.06024  -0.00052  -0.00226  -0.01151  -0.01383   1.04641
    D4       -3.14033   0.00015   0.00512   0.00518   0.01037  -3.12996
    D5        1.11717  -0.00013  -0.00435   0.00549   0.00104   1.11821
    D6       -1.03348  -0.00051  -0.00353  -0.01080  -0.01432  -1.04781
    D7        1.07201   0.00077   0.01129   0.01913   0.03059   1.10260
    D8       -0.95368   0.00050   0.00183   0.01944   0.02126  -0.93242
    D9       -3.10433   0.00012   0.00265   0.00315   0.00590  -3.09843
   D10        2.27447  -0.00076  -0.00314  -0.07112  -0.07429   2.20018
   D11       -1.17462  -0.00044  -0.00209  -0.05379  -0.05585  -1.23047
   D12       -1.90174  -0.00048   0.00833  -0.06628  -0.05798  -1.95972
   D13        0.93235  -0.00015   0.00937  -0.04895  -0.03954   0.89282
   D14        0.12884  -0.00061   0.00118  -0.06546  -0.06415   0.06469
   D15        2.96294  -0.00028   0.00222  -0.04813  -0.04571   2.91723
   D16        2.06084   0.00030   0.00966  -0.04210  -0.03244   2.02840
   D17       -0.06038  -0.00029  -0.00348  -0.04851  -0.05192  -0.11229
   D18       -2.05860   0.00059   0.00904  -0.03043  -0.02126  -2.07986
   D19        2.87882   0.00140  -0.00430   0.05516   0.05054   2.92936
   D20       -0.25182   0.00098   0.00082   0.03650   0.03713  -0.21468
   D21        0.00841   0.00068  -0.00586   0.03663   0.03058   0.03899
   D22       -3.12223   0.00026  -0.00074   0.01797   0.01717  -3.10505
   D23       -2.88572  -0.00145   0.01007  -0.07741  -0.06746  -2.95318
   D24        0.23424  -0.00153  -0.00956  -0.07321  -0.08282   0.15142
   D25       -0.00121  -0.00135   0.01232  -0.06389  -0.05161  -0.05282
   D26        3.11875  -0.00142  -0.00731  -0.05969  -0.06697   3.05178
   D27       -0.01214   0.00023  -0.00273   0.00353   0.00079  -0.01135
   D28       -3.13141  -0.00056   0.00490  -0.02426  -0.01923   3.13255
   D29        3.11716   0.00071  -0.00848   0.02450   0.01583   3.13299
   D30       -0.00212  -0.00008  -0.00086  -0.00329  -0.00418  -0.00630
   D31        0.01160  -0.00106   0.01034  -0.04255  -0.03205  -0.02045
   D32       -3.00409  -0.00094   0.00967  -0.03636  -0.02650  -3.03059
   D33        3.13325  -0.00036   0.00353  -0.01774  -0.01416   3.11909
   D34        0.11757  -0.00023   0.00286  -0.01155  -0.00862   0.10895
   D35       -0.00645   0.00151  -0.01407   0.06633   0.05229   0.04583
   D36       -3.12688   0.00158   0.00513   0.06225   0.06739  -3.05949
   D37        3.01498   0.00120  -0.01325   0.05876   0.04550   3.06048
   D38       -0.10545   0.00128   0.00595   0.05469   0.06060  -0.04485
   D39        2.24161   0.00040  -0.01253   0.01153  -0.00088   2.24073
   D40        0.15299   0.00024  -0.01059   0.01354   0.00305   0.15604
   D41       -1.93891   0.00030  -0.00129   0.01642   0.01501  -1.92390
   D42       -0.75629   0.00072  -0.01276   0.01999   0.00747  -0.74882
   D43       -2.84491   0.00057  -0.01082   0.02200   0.01140  -2.83351
   D44        1.34637   0.00063  -0.00152   0.02488   0.02337   1.36973
   D45        0.18544   0.00096  -0.00423   0.04451   0.04033   0.22577
   D46        2.25185  -0.00016  -0.00776   0.03127   0.02332   2.27517
   D47       -1.91255   0.00096  -0.01430   0.04258   0.02850  -1.88406
   D48        0.75057   0.00081  -0.02300  -0.07832  -0.10196   0.64861
   D49       -0.53863   0.00131  -0.00865   0.11107   0.10241  -0.43623
   D50       -0.52779   0.00159   0.00173   0.07938   0.08120  -0.44660
         Item               Value     Threshold  Converged?
 Maximum Force            0.011443     0.000450     NO 
 RMS     Force            0.002437     0.000300     NO 
 Maximum Displacement     0.307604     0.001800     NO 
 RMS     Displacement     0.069017     0.001200     NO 
 Predicted change in Energy=-5.311236D-03
 GradGradGradGradGradGradGradGradGradGradGradGradGradGradGradGradGradGrad

                          Input orientation:                          
 ---------------------------------------------------------------------
 Center     Atomic      Atomic             Coordinates (Angstroms)
 Number     Number       Type             X           Y           Z
 ---------------------------------------------------------------------
      1          6           0        2.392617    1.605634    1.241397
      2          6           0        1.790898    1.172921   -0.095257
      3          7           0        0.299221    1.216648   -0.120826
      4          6           0       -0.498826    1.877764   -1.038855
      5          6           0       -1.777178    1.439246   -0.861034
      6          7           0       -1.751452    0.500032    0.156318
      7          6           0       -0.482139    0.364829    0.555507
      8          6           0       -2.869422   -0.348632    0.618918
      9          6           0        0.196260   -2.504676    0.013373
     10          7           0       -0.848454   -2.698826    0.517532
     11         16           0        1.639453   -2.187009   -0.768668
     12          1           0        2.114442    2.628096    1.518540
     13          1           0        3.481813    1.556242    1.171207
     14          1           0        2.100917    0.933777    2.053707
     15          1           0        2.017599    0.118860   -0.330830
     16          1           0        2.121186    1.821665   -0.905727
     17          1           0       -0.093799    2.595882   -1.729343
     18          1           0       -2.688398    1.709300   -1.364500
     19          1           0       -0.150262   -0.350643    1.284856
     20          1           0       -2.510970   -1.388552    0.626739
     21          1           0       -3.691076   -0.227190   -0.085034
     22          1           0       -3.198371   -0.036869    1.612149
 ---------------------------------------------------------------------
                    Distance matrix (angstroms):
                    1          2          3          4          5
     1  C    0.000000
     2  C    1.528381   0.000000
     3  N    2.527700   1.492537   0.000000
     4  C    3.692431   2.574882   1.384461   0.000000
     5  C    4.672803   3.659031   2.215602   1.363123   0.000000
     6  N    4.424145   3.614459   2.189888   2.212613   1.384843
     7  C    3.205349   2.498640   1.339233   2.198009   2.199565
     8  C    5.647627   4.954165   3.610765   3.650312   2.565104
     9  C    4.819406   4.009911   3.725166   4.560276   4.495950
    10  N    5.436626   4.725687   4.129843   4.846624   4.459441
    11  S    4.357953   3.430095   3.714944   4.600829   4.983134
    12  H    1.095272   2.196943   2.823957   3.732618   4.713856
    13  H    1.092572   2.147105   3.451604   4.564345   5.639209
    14  H    1.093768   2.184342   2.838084   4.148942   4.877585
    15  H    2.196140   1.103600   2.049894   3.150784   4.052761
    16  H    2.174967   1.089413   2.074047   2.623992   3.917331
    17  H    3.998519   2.871783   2.155012   1.075413   2.219354
    18  H    5.711231   4.686446   3.273423   2.220056   1.075513
    19  H    3.208604   2.827377   2.152761   3.238353   3.233481
    20  H    5.778246   5.058507   3.904241   4.182314   3.278469
    21  H    6.490762   5.657955   4.243633   3.940948   2.653712
    22  H    5.839043   5.410327   4.099715   4.240423   3.211750
                    6          7          8          9         10
     6  N    0.000000
     7  C    1.337456   0.000000
     8  C    1.477865   2.492422   0.000000
     9  C    3.583614   2.998032   3.796527   0.000000
    10  N    3.343438   3.085711   3.101291   1.176137   0.000000
    11  S    4.424255   3.573020   5.063100   1.671916   2.847094
    12  H    4.618381   3.576596   5.874447   5.682455   6.177125
    13  H    5.434395   4.184670   6.653703   5.350373   6.106072
[...]
 6,0.00016035,-0.00013762,0.00036144,-0.00020384,0.00020654,0.00008319,
 -0.00005136,-0.00006493,-0.00001091,-0.00003945,0.00047048,-0.00002152
 ,-0.00015660,-0.00034702,0.00009587,0.00008622,-0.00024552,-0.00030585
 ,0.00005916,-0.06945479,0.31640214,0.00170226,-0.00661407,-0.04897217,
 0.00804224,-0.02944555,-0.00192555,0.00131537,0.00099350,0.00097750,-0
 .00000716,-0.00019577,0.00022332,-0.00033230,0.00000456,-0.00002163,0.
 00009207,0.00024738,-0.00004442,-0.00012137,0.00006295,0.00017507,-0.0
 0003596,-0.00002005,-0.00003462,0.00025233,-0.00002994,-0.00007320,-0.
 00017007,0.00003920,0.00008390,-0.00005029,-0.00032917,0.00018070,-0.0
 0021424,0.01147909,0.05134859,-0.31100751,0.01818618,0.01442907,-0.012
 48930,0.00133440,0.00212617,-0.00053826,-0.00157227,-0.00224250,0.0005
 8279,-0.00064066,0.00011056,-0.00028950,-0.00021517,0.00012036,-0.0005
 7702,0.00023993,-0.00000110,0.00078125,0.00064375,-0.00052141,0.000126
 61,0.00013438,0.00002505,-0.00031543,0.00001114,0.00013669,0.00026197,
 -0.00018031,-0.00007155,0.00021449,-0.00002525,-0.00003262,-0.00623620
 ,0.00049233,0.00059806,0.33725148,0.01967506,-0.04793965,-0.00181447,-
 0.01416587,0.00036538,0.00253968,-0.00260600,-0.00108189,-0.00303848,0
 .00016258,-0.00055435,-0.00002277,-0.00056045,-0.00014447,0.00022555,-
 0.00047702,0.00036397,-0.00004820,0.00041188,0.00044629,-0.00033910,0.
 00003880,0.00007502,0.00000007,-0.00038182,0.00004703,0.00017809,0.000
 30880,-0.00015675,-0.00008485,0.00026728,0.00005851,-0.00003864,0.0318
 1391,-0.00103027,-0.00158235,-0.01947987,0.04804008,0.01667418,-0.0017
 3224,-0.04800061,-0.02546241,0.00332842,0.00244695,-0.00437942,-0.0034
 9773,-0.00415808,0.00025715,-0.00065551,0.00005453,-0.00039569,-0.0002
 8132,0.00019155,-0.00106826,0.00028071,0.00011183,0.00029677,0.0006404
 5,-0.00078328,0.00006763,0.00018021,0.00010886,-0.00015327,-0.00000397
 ,0.00002800,0.00013209,-0.00009387,-0.00000538,0.00006807,0.00002392,-
 0.00003593,0.00084915,0.00036347,-0.00119254,-0.01492703,0.00337042,0.
 05007439,-0.07120118,-0.03603805,0.06822489,0.00236990,0.00615499,-0.0
 1398587,0.00225827,0.00118868,0.00007284,-0.00030178,0.00034832,0.0000
 3704,0.00016670,0.00001863,-0.00005909,0.00006714,-0.00003918,-0.00000
 215,-0.00013903,-0.00036094,0.00012944,-0.00004807,-0.00004944,0.00001
 316,0.00034939,0.00000942,-0.00015179,-0.00024908,0.00015365,0.0000737
 0,-0.00021719,-0.00005447,-0.00001007,0.00195091,0.00396834,-0.0083528
 3,-0.00828343,-0.01518926,0.02739852,0.07346644,-0.03706609,-0.1045543
 4,0.10287462,0.00556614,0.00765419,-0.01522083,0.00090601,0.00036795,0
 .00034941,-0.00001507,-0.00015188,0.00025883,0.00006389,-0.00000120,0.
 00002159,-0.00010168,-0.00004854,-0.00003224,0.00019397,0.00026070,0.0
 0016764,0.00001446,0.00002183,-0.00003385,-0.00027761,-0.00002561,0.00
 009129,0.00019686,-0.00006037,-0.00004839,0.00014347,0.00019119,0.0001
 2380,-0.01029651,-0.01299688,0.02586708,0.00079274,0.00051212,-0.00298
 604,0.04139137,0.10874412,0.06630631,0.10070514,-0.23271314,0.00845509
 ,0.01118454,-0.02484144,0.00099184,0.00043711,0.00181262,-0.00013564,0
 .00008771,0.00009436,0.00006496,-0.00019009,-0.00000833,-0.00045955,-0
 .00001777,-0.00004218,-0.00030338,0.00009318,0.00006229,-0.00001068,0.
 00000981,-0.00002011,0.00002133,-0.00002979,-0.00000716,-0.00001652,0.
 00004250,0.00004467,0.00001270,-0.00001618,0.00016508,-0.00118023,-0.0
 0092648,0.00243388,0.00044440,-0.00004013,-0.00046570,-0.07160571,-0.1
 0848656,0.25529259,0.00457452,-0.01408363,-0.00001920,-0.06411852,0.04
 824347,0.00461714,-0.02218912,0.03927425,-0.00276202,-0.00370901,-0.00
 266120,0.00273706,-0.00138167,0.00102225,-0.00063556,-0.00032486,0.000
 53169,-0.00007113,0.00148087,0.00189019,-0.00058549,0.00013749,-0.0000
 2439,-0.00010111,-0.00017394,-0.00091427,-0.00000815,-0.00010821,0.000
 17759,0.00006125,-0.00122982,0.00134977,0.00002806,-0.00057630,-0.0011
 9837,-0.00314377,0.00028978,0.00005873,0.00039016,0.00022126,0.0006434
 9,0.00009746,0.08402317,0.00043436,-0.01064321,-0.00209580,0.06334638,
 -0.29622156,-0.00433483,0.00109617,0.00223158,0.00067586,-0.00091069,-
 0.00028148,0.00022601,-0.00076839,0.00011777,-0.00015029,-0.00079656,0
 .00019816,0.00030892,-0.00065124,0.00101798,-0.00026045,0.00032533,0.0
 0019479,-0.00013771,-0.00364656,0.00006965,0.00120350,0.00269889,-0.00
 101317,-0.00059215,0.00158417,0.00085257,-0.00069247,-0.00095681,0.001
 15587,-0.00100617,-0.00019972,0.00016614,0.00003432,0.00026682,0.00080
 616,0.00035726,-0.06287562,0.30904833,0.00580790,-0.02772283,-0.001337
 08,0.00231554,-0.00298404,-0.05225374,0.00047923,-0.00036305,-0.000736
 22,-0.00068610,0.00027551,0.00036271,0.00007850,0.00042031,0.00012427,
 0.00035605,-0.00039620,-0.00019453,-0.00012020,-0.00040759,0.00070999,
 0.00002097,-0.00001325,-0.00002072,0.00004817,0.00023567,-0.00031079,0
 .00002684,-0.00003930,0.00006074,0.00002778,-0.00063741,-0.00114568,-0
 .00259378,-0.00242381,-0.00398839,0.00009371,0.00066185,0.00106987,0.0
 0093593,0.00030835,0.00100666,0.00041089,0.00703576,0.05503162,0.00548
 863,0.00665679,-0.01199195,-0.06847461,-0.02701018,0.06013327,-0.02551
 025,-0.02081126,0.03054882,0.00246404,-0.00150026,0.00049176,-0.000663
 86,-0.00123092,0.00040048,-0.00280845,-0.00046332,-0.00047830,-0.00158
 543,0.00473412,0.00087123,-0.00003736,0.00027758,-0.00069573,-0.000620
 14,-0.00007987,0.00021437,0.00041246,-0.00028816,-0.00008365,0.0002406
 3,0.00030795,-0.00002173,0.00018110,-0.00023428,0.00062309,0.00038928,
 0.00026426,0.00043923,-0.00050458,-0.00197001,-0.00262884,0.00393528,0
 .00191821,-0.00754836,0.08754099,0.00487221,0.00744359,-0.01538157,-0.
 03498366,-0.10147032,0.09967606,0.00195831,0.00056112,-0.00296375,0.00
 033030,0.00061569,-0.00058175,-0.00010022,0.00031494,-0.00039818,0.000
 64703,-0.00026410,-0.00004645,-0.00059792,0.00000598,0.00029177,0.0000
 0654,0.00003657,0.00015748,0.00036180,0.00009266,-0.00017754,-0.000188
 69,-0.00003085,-0.00001305,0.00001952,-0.00079134,-0.00021926,0.000827
 31,0.00083554,0.00050421,0.00024625,0.00058705,0.00098469,-0.00142946,
 -0.00075887,-0.00297122,-0.01061328,-0.00944854,0.02607435,0.03849008,
 0.10182649,0.00604998,0.01122933,-0.02271160,0.06885150,0.09877499,-0.
 24065332,-0.00019779,-0.00041504,0.00282772,-0.00056531,0.00032166,0.0
 0061409,0.00056356,0.00012280,0.00010929,-0.00031138,-0.00061698,0.000
 18673,-0.00073396,-0.00044028,0.00022458,0.00001536,-0.00002273,-0.000
 12069,-0.00006194,-0.00000513,0.00003320,0.00004913,0.00000427,0.00001
 611,0.00003408,0.00012054,0.00002294,0.00067082,-0.00032782,0.00115697
 ,-0.00030646,0.00023043,0.00068975,-0.00267542,-0.00312024,-0.00266060
 ,-0.00123143,-0.00013793,0.00139696,-0.07039592,-0.10529074,0.25901317
 ,-0.00012054,0.00008276,-0.00004252,0.00158326,-0.00036618,-0.00031933
 ,0.01201322,0.02077056,-0.00834829,-0.10837544,-0.10854614,0.04351824,
 0.00321817,-0.02065035,0.00803726,-0.00551407,-0.00204943,0.00079160,-
 0.00451183,0.00363703,-0.00126743,0.00115519,-0.00090188,0.00033237,0.
 00033075,0.00007305,-0.00011071,-0.00013900,0.00024449,0.00005706,-0.0
 0011616,-0.00006350,0.00003153,-0.00006571,0.00000310,-0.00022250,-0.0
 0001890,-0.00001984,-0.00000013,0.00004720,-0.00006925,0.00006291,-0.0
 0001532,-0.00000231,0.00016980,-0.00009774,-0.00000479,0.00034639,0.10
 015861,0.00018080,0.00011729,0.00004356,-0.00145764,0.00024071,-0.0003
 3695,-0.01030293,-0.01575140,0.00522665,-0.10127077,-0.27532252,0.0987
 8364,0.00129197,0.00146171,-0.00049206,0.00019695,0.00229412,0.0012004
 3,0.00409559,-0.00104141,0.00159241,-0.00007449,0.00041087,0.00038974,
 -0.00030255,-0.00005705,0.00008765,0.00015273,-0.00018962,-0.00009352,
 0.00010551,0.00007691,-0.00003915,0.00002265,0.00008112,0.00005587,0.0
 0000221,0.00002263,0.00002801,-0.00003241,-0.00001769,-0.00006488,0.00
 009849,0.00000117,-0.00020510,0.00059839,0.00012672,-0.00035969,0.1076
 5091,0.28768306,-0.00009503,0.00047443,-0.00001946,0.00011783,-0.00077
 194,-0.00063518,0.00412771,0.00458026,-0.00492323,0.04065489,0.0992423
 7,-0.06431515,-0.00072199,-0.00042416,0.00052578,0.00004134,0.00115041
 ,0.00485089,-0.00161209,0.00155515,0.00258536,-0.00003632,0.00048807,0
 .00121691,0.00015197,0.00006182,-0.00008152,-0.00012064,0.00009575,-0.
 00007023,-0.00002654,-0.00007305,0.00000233,-0.00026525,-0.00027985,-0
 .00020811,0.00003569,-0.00023208,-0.00003796,0.00002126,-0.00006675,-0
 .00000922,0.00001808,0.00005001,-0.00002926,0.00007566,0.00016572,-0.0
 0009230,-0.04287735,-0.10554335,0.06219892,-0.00006780,0.00005532,0.00
 003933,0.00043337,0.00102061,-0.00018191,-0.00398047,-0.00181841,0.000
 65114,-0.00708573,0.01459319,-0.00570205,-0.28769058,0.12745921,-0.049
 43558,0.00717169,-0.00440538,0.00168702,0.00037585,-0.00217948,0.00080
 064,0.00048729,0.00040529,-0.00010692,-0.00002527,0.00001312,0.0000080
 2,0.00001113,-0.00002567,-0.00000661,0.00003070,0.00000275,-0.00000273
 ,0.00001646,-0.00002707,-0.00000810,0.00000195,-0.00002421,-0.00003676
 ,-0.00000264,-0.00000446,-0.00002076,-0.00037372,-0.00015707,-0.000014
 65,0.00003298,-0.00003114,-0.00000730,-0.00000233,-0.00033451,0.000135
 51,0.28993231,0.00008202,-0.00004403,0.00002543,0.00013427,0.00116800,
 0.00022961,-0.00405597,0.00088837,0.00170340,-0.00723626,0.01045167,-0
 .00400005,0.11974665,-0.12091511,0.03718185,0.02753643,-0.01132473,0.0
 0323266,-0.00281417,-0.00522450,0.00326012,0.00086463,0.00168858,-0.00
 073561,-0.00014277,-0.00006204,0.00003758,0.00000844,-0.00008392,-0.00
 006737,0.00000804,0.00002206,-0.00001075,0.00000151,-0.00000923,-0.000
 02268,-0.00000020,0.00000769,-0.00000605,-0.00000262,-0.00000703,-0.00
 002064,-0.00038944,-0.00008782,-0.00001351,0.00001033,0.00002122,-0.00
 000824,0.00047842,-0.00055931,-0.00087966,-0.13478662,0.12383104,0.000
 34117,-0.00015568,-0.00007186,-0.00029972,0.00038028,0.00140701,0.0017
 9519,0.00147792,0.00462203,0.00302524,-0.00394753,0.00186043,-0.046765
 58,0.03727867,-0.03934405,-0.01074906,0.00315431,-0.00432927,0.0012112
 3,0.00328232,0.00202119,-0.00008076,-0.00096158,-0.00039379,0.00002648
 ,0.00004842,-0.00001372,0.00001115,0.00002726,-0.00003417,0.00000859,-
 0.00000086,-0.00002868,-0.00003729,0.00000423,-0.00002536,0.00003825,0
 .00007984,0.00004949,-0.00001861,0.00000496,-0.00002639,-0.00014693,-0
 .00008165,-0.00000095,-0.00013086,0.00009183,-0.00005321,-0.00019965,-
 0.00088484,-0.00246784,0.05230108,-0.04010710,0.03594993,-0.00016200,0
 .00003723,0.00008086,0.00204655,-0.00022651,-0.00019409,0.01144552,-0.
 02044945,0.00737253,-0.00351630,-0.00264198,0.00128402,-0.00518004,-0.
 00058925,0.00020369,-0.00478216,0.02820590,-0.01014991,-0.08248497,0.0
 7042952,-0.02572721,0.00120515,0.00130040,-0.00042021,0.00415059,0.002
 52023,-0.00126421,-0.00209215,0.00231243,-0.00003948,-0.00292964,-0.00
 042159,0.00073563,0.00004941,0.00008646,-0.00000390,-0.00004746,-0.000
 02936,-0.00003623,0.00001155,-0.00008264,-0.00006332,-0.00039634,-0.00
 024808,0.00019059,-0.00010207,0.00018538,-0.00003583,0.00097382,-0.000
 64874,0.00033383,0.00039275,0.00113521,-0.00043061,0.08239808,0.000399
 38,-0.00027867,-0.00018595,-0.00180376,-0.00029564,-0.00062329,0.00324
 090,-0.00558504,0.00223570,-0.00309710,0.00295646,-0.00011771,-0.00108
 666,0.00423582,-0.00067466,0.00025147,0.00344390,-0.00036753,0.0753842
 4,-0.28086699,0.09110130,0.00201549,0.00103602,-0.00122928,0.02099566,
 -0.00628972,-0.00579286,-0.00726588,0.00272147,0.00346311,-0.00615835,
 -0.00265684,0.00199935,-0.00005447,-0.00006776,-0.00001388,0.00024748,
 0.00021803,0.00006997,-0.00029017,0.00005093,-0.00014009,-0.00051879,0
 .00168805,0.00017713,0.00043094,0.00026620,-0.00004415,-0.00017202,0.0
 0044021,0.00041719,0.00010184,0.00084693,0.00018654,-0.08032071,0.2771
 3433,-0.00031228,-0.00013098,0.00032280,-0.00011610,-0.00062901,-0.002
 13210,-0.00190920,0.00449867,0.00003383,0.00185535,0.00040942,0.003032
 91,-0.00012476,-0.00055312,0.00327263,-0.00024672,0.00092030,0.0027845
 8,-0.02626472,0.08859505,-0.06813510,-0.00033486,-0.00112452,-0.002328
 43,-0.00561130,-0.00081243,0.00268133,0.00215064,-0.00187524,-0.003825
 28,0.00199489,0.00071884,-0.00065411,0.00001161,0.00003378,-0.00008728
 ,-0.00006036,-0.00004914,-0.00014684,-0.00004068,-0.00007418,-0.000118
 85,0.00030944,-0.00042494,0.00023581,0.00006519,0.00009843,0.00000207,
 -0.00003646,0.00062644,0.00157472,-0.00003256,0.00042329,0.00154044,0.
 02811452,-0.09052369,0.06140028,-0.00010501,0.00002146,0.00001093,0.00
 031810,0.00006306,0.00001942,-0.00035773,-0.00039048,0.00009766,-0.000
 37618,-0.00170936,0.00078671,-0.00515432,-0.00017751,-0.00034279,0.007
 33122,-0.03594342,0.01010354,0.00214741,-0.00121492,0.00028967,-0.0900
 7096,0.09884128,-0.02516933,-0.00308211,-0.00009369,0.00113128,0.00138
 968,-0.00081096,-0.00027856,0.00207104,0.00051791,-0.00079474,0.000019
 66,0.00006011,0.00002094,-0.00003850,-0.00002975,-0.00002316,0.0000229
 1,-0.00003109,-0.00001500,-0.00005117,-0.00031794,0.00001350,-0.000042
 12,0.00001833,-0.00002433,-0.00050989,0.00005941,0.00007189,0.00004219
 ,-0.00006570,-0.00000570,-0.00100894,-0.00163716,0.00033054,0.09687138
 ,0.00010412,-0.00003536,-0.00001059,-0.00028950,0.00004248,-0.00002887
 ,0.00074285,-0.00010483,-0.00006947,0.00019845,-0.00048357,0.00034607,
 -0.00205318,0.00053969,-0.00036940,0.00347496,-0.02155143,0.00593407,0
 .00012819,0.00046162,0.00015361,0.08164507,-0.26662353,0.05351182,0.00
 170284,0.00006253,-0.00083018,-0.00142229,-0.00167948,0.00007402,-0.00
 164343,-0.00035000,0.00067773,-0.00001297,-0.00003727,-0.00000892,0.00
 003387,0.00003289,0.00002007,-0.00003198,0.00002780,0.00000144,-0.0000
 0185,0.00025878,-0.00000281,0.00007833,-0.00000164,-0.00000054,-0.0001
 4205,0.00003718,0.00001337,-0.00000816,-0.00010471,-0.00001733,-0.0003
 1157,0.00155185,-0.00025756,-0.08425588,0.28713065,-0.00003277,-0.0000
 0441,0.00002853,0.00002735,-0.00003537,-0.00006506,-0.00021710,-0.0002
 2032,-0.00024720,-0.00009799,0.00054566,0.00029528,0.00108830,0.000231
 83,0.00064646,-0.00154923,0.00792150,-0.00381963,-0.00006261,0.0000487
 7,0.00085447,-0.02002402,0.05217697,-0.06481842,0.00069976,-0.00016416
 ,-0.00043661,-0.00064635,0.00003814,-0.00183640,0.00010570,0.00005185,
 0.00009206,0.00000029,0.00000040,-0.00000534,-0.00000450,-0.00000706,-
 0.00001327,-0.00000222,-0.00000387,-0.00000865,0.00001487,-0.00002210,
 0.00002652,-0.00000211,0.00001379,-0.00000539,0.00008503,-0.00002388,-
 0.00003129,-0.00000483,-0.00011825,-0.00018274,-0.00000611,-0.00012808
 ,0.00050937,0.02048358,-0.05961442,0.06584013,-0.00001143,0.00003875,0
 .00001858,0.00026681,-0.00015064,0.00046620,-0.00142615,-0.00073845,0.
 00111525,-0.00123939,0.00033713,0.00016023,0.00132809,0.00197937,-0.00
 067070,-0.02656924,-0.00412832,-0.01871919,0.00132714,-0.00365078,-0.0
 0103419,-0.13454958,-0.00679884,-0.12225685,-0.00014438,0.00005954,0.0
 0004897,0.00012079,0.00030286,0.00016390,0.00007654,0.00006334,-0.0000
 0134,0.00001161,0.00000133,0.00000180,-0.00002147,-0.00001370,-0.00001
 409,0.00001359,-0.00000940,-0.00000422,-0.00001372,-0.00006793,-0.0000
 1666,-0.00021333,0.00000552,-0.00003271,0.00001797,0.00001948,0.000088
 94,0.00016470,-0.00042259,-0.00021497,0.00003337,-0.00047087,-0.000246
 29,-0.00513463,-0.00123659,-0.00832913,0.15399409,0.00001074,0.0000387
 3,0.00001401,0.00020070,-0.00006386,0.00042875,-0.00138174,-0.00159958
 ,0.00077505,-0.00116618,0.00064430,-0.00015491,0.00013041,0.00157494,-
 0.00098641,-0.02014306,-0.00386915,-0.01533001,0.00209892,-0.00189210,
 -0.00067036,-0.00229423,-0.04900069,-0.00551401,-0.00027724,0.00000703
 ,0.00010616,0.00053040,-0.00077387,-0.00037261,0.00028406,0.00012219,-
 0.00012895,0.00000965,-0.00000406,-0.00000127,-0.00001455,-0.00000959,
 -0.00000888,0.00000854,-0.00001348,-0.00001063,-0.00001564,-0.00005805
 ,0.00001316,-0.00016593,0.00004708,-0.00002452,0.00004281,0.00006280,0
 .00020077,0.00004672,-0.00038032,-0.00001197,-0.00013922,-0.00022481,0
 .00012183,0.01548737,0.00684737,0.02346100,0.01407185,0.04893731,-0.00
 002069,-0.00000493,-0.00001361,-0.00006948,-0.00000631,-0.00026169,0.0
 0107490,0.00000400,-0.00036213,-0.00008710,-0.00041100,0.00018509,-0.0
 0020054,0.00013645,0.00080561,0.00911835,0.00111712,0.01121459,0.00074
 076,0.00100077,0.00028414,-0.13041584,-0.01035232,-0.23158980,0.000247
 33,0.00001100,-0.00010511,-0.00033850,0.00028692,0.00013549,-0.0001688
 7,-0.00004857,0.00006721,-0.00000036,0.00000373,0.00000277,0.00000008,
 0.00000623,0.00000286,0.00000045,0.00000245,0.00000814,0.00002060,0.00
 003051,-0.00000312,0.00009259,-0.00001009,0.00000249,-0.00002314,-0.00
 001423,-0.00009244,-0.00012861,-0.00027653,-0.00007590,0.00008333,0.00
 010007,0.00001578,-0.00197250,-0.00113707,-0.00458237,0.13650339,0.009
 01685,0.24263965,-0.00020982,0.00003698,0.00010211,0.00034210,-0.00027
 623,-0.00031433,-0.00134318,-0.00168355,-0.00028412,-0.00149162,0.0000
 7008,-0.00024049,0.00099418,0.00214767,-0.00059125,-0.02437743,0.00538
 196,0.02066877,0.00158402,-0.00167399,0.00277067,-0.10996291,0.0506030
 7,0.09794001,-0.00009554,0.00004307,0.00002650,-0.00000347,0.00018992,
 -0.00024086,0.00004384,0.00009517,-0.00003124,0.00001788,0.00000178,0.
 00001433,-0.00003661,-0.00002416,-0.00007649,0.00000171,0.00001138,-0.
 00001313,-0.00000062,-0.00007142,0.00000435,-0.00002545,-0.00001943,-0
 .00000105,-0.00001126,-0.00005106,-0.00011938,0.00013517,-0.00008961,0
 .00032134,-0.00000472,-0.00019148,0.00050411,-0.00428204,0.00330078,0.
 00847409,0.01196862,-0.00732439,-0.01445615,0.12675715,-0.00019740,0.0
 0007327,0.00004920,0.00029458,-0.00029165,-0.00037893,-0.00157620,-0.0
 0158527,0.00039143,-0.00090874,0.00049539,-0.00045497,0.00006028,0.001
 53187,0.00028511,-0.01890290,0.00655617,0.01978663,0.00172112,-0.00072
 746,0.00153089,0.05674642,-0.09293761,-0.08690944,-0.00044677,0.000067
 14,0.00015403,0.00089187,-0.00054636,0.00059144,0.00039430,0.00008884,
 -0.00014551,0.00001073,0.00000638,0.00001599,-0.00003666,-0.00002585,-
 0.00005905,0.00000921,-0.00000111,-0.00000421,0.00000658,-0.00005317,0
 .00000680,-0.00001280,-0.00001519,0.00000997,0.00000459,-0.00011751,-0
 .00022449,0.00010411,-0.00012282,0.00015196,-0.00010363,-0.00032472,0.
 00000876,0.01160893,-0.00602103,-0.02414799,0.00080892,-0.00039219,0.0
 0054492,-0.05047654,0.09434289,0.00003088,-0.00003286,-0.00001645,-0.0
 0009239,0.00005571,0.00002484,0.00009676,0.00070548,-0.00056208,0.0006
 5411,0.00001232,0.00013653,0.00026037,-0.00067802,0.00055409,0.0052907
 6,0.00197323,-0.00097251,-0.00195921,0.00024355,-0.00025956,0.10195520
 ,-0.08210030,-0.21079654,0.00001553,-0.00003347,-0.00000410,-0.0000758
 0,0.00008301,-0.00012127,-0.00003400,-0.00002419,0.00002709,-0.0000062
 0,0.00000199,-0.00000408,0.00000945,0.00000511,0.00001151,-0.00000278,
 0.00000292,0.00000149,-0.00000023,0.00001434,-0.00000466,0.00002177,-0
 .00000474,0.00000102,0.00001532,0.00002324,0.00005828,0.00006660,0.000
 17251,-0.00040258,-0.00002790,0.00009081,0.00002145,-0.00473354,0.0016
 1497,0.00775957,0.01297307,-0.01092305,-0.01827763,-0.11445779,0.08879
 745,0.22282560\\0.00000199,0.00000103,0.00000414,-0.00000120,-0.000002
 55,-0.00001337,0.00000536,0.00001412,0.00000675,-0.00000524,-0.0000026
 8,-0.00000071,0.00000217,0.00000263,-0.00001442,0.00000153,-0.00000861
 ,0.00000252,-0.00000395,-0.00000393,0.00001242,0.00000165,0.00000824,-
 0.00000635,0.00001220,0.00000570,-0.00000308,-0.00000652,-0.00001357,0
 .00000233,-0.00000047,-0.00000373,-0.00000221,0.00000016,0.00000043,0.
 00000125,-0.00000036,-0.00000007,-0.00000110,0.00000058,-0.00000105,-0
 .00000020,-0.00000300,0.00000107,0.00000357,-0.00000017,0.00000119,0.0
 0000191,0.,0.00000018,0.00000110,-0.00000110,0.00000086,0.00000786,0.0
 0000102,-0.00000142,-0.00000483,-0.00000611,0.00000375,-0.00000069,0.0
 0000091,-0.00000017,0.00000038,0.00000054,-0.00000146,0.00000274\\\@
 Job cpu time:       0 days  1 hours 47 minutes 51.8 seconds.
 Elapsed time:       0 days  0 hours  9 minutes 36.6 seconds.
 File lengths (MBytes):  RWF=  40855 Int=      0 D2E=      0 Chk=     29 Scr=      1
 Normal termination of Gaussian 16 at Wed Mar  4 18:39:25 2020.
