 Entering Gaussian System, Link 0=g16
 Input=c2c1im_cso3.gjf
 Output=c2c1im_cso3.log
 Initial command:
 /opt/g16/l1.exe "/scratch/mtmjea001/c2c1im_cso3/Gau-31218.inp" -scrdir="/scratch/mtmjea001/c2c1im_cso3/"
 Entering Link 1 = /opt/g16/l1.exe PID=     31219.
  
 Copyright (c) 1988-2019, Gaussian, Inc.  All Rights Reserved.
  
 This is part of the Gaussian(R) 16 program.  It is based on
 the Gaussian(R) 09 system (copyright 2009, Gaussian, Inc.),
 the Gaussian(R) 03 system (copyright 2003, Gaussian, Inc.),
 the Gaussian(R) 98 system (copyright 1998, Gaussian, Inc.),
 the Gaussian(R) 94 system (copyright 1995, Gaussian, Inc.),
 the Gaussian 92(TM) system (copyright 1992, Gaussian, Inc.),
 the Gaussian 90(TM) system (copyright 1990, Gaussian, Inc.),
 the Gaussian 88(TM) system (copyright 1988, Gaussian, Inc.),
 the Gaussian 86(TM) system (copyright 1986, Carnegie Mellon
 University), and the Gaussian 82(TM) system (copyright 1983,
 Carnegie Mellon University). Gaussian is a federally registered
 trademark of Gaussian, Inc.
  
 This software contains proprietary and confidential information,
 including trade secrets, belonging to Gaussian, Inc.
  
 This software is provided under written license and may be
 used, copied, transmitted, or stored only in accord with that
 written license.
  
 The following legend is applicable only to US Government
 contracts under FAR:
  
                    RESTRICTED RIGHTS LEGEND
  
 Use, reproduction and disclosure by the US Government is
 subject to restrictions as set forth in subparagraphs (a)
 and (c) of the Commercial Computer Software - Restricted
 Rights clause in FAR 52.227-19.
  
 Gaussian, Inc.
 340 Quinnipiac St., Bldg. 40, Wallingford CT 06492
  
  
 ---------------------------------------------------------------
 Warning -- This program may not be used in any manner that
 competes with the business of Gaussian, Inc. or will provide
 assistance to any competitor of Gaussian, Inc.  The licensee
 of this program is prohibited from giving any competitor of
 Gaussian, Inc. access to this program.  By using this program,
 the user acknowledges that Gaussian, Inc. is engaged in the
 business of creating and licensing software in the field of
 computational chemistry and represents and warrants to the
 licensee that it is not a competitor of Gaussian, Inc. and that
 it will not use this program in any manner prohibited above.
 ---------------------------------------------------------------
  

 Cite this work as:
 Gaussian 16, Revision C.01,
 M. J. Frisch, G. W. Trucks, H. B. Schlegel, G. E. Scuseria, 
 M. A. Robb, J. R. Cheeseman, G. Scalmani, V. Barone, 
 G. A. Petersson, H. Nakatsuji, X. Li, M. Caricato, A. V. Marenich, 
 J. Bloino, B. G. Janesko, R. Gomperts, B. Mennucci, H. P. Hratchian, 
 J. V. Ortiz, A. F. Izmaylov, J. L. Sonnenberg, D. Williams-Young, 
 F. Ding, F. Lipparini, F. Egidi, J. Goings, B. Peng, A. Petrone, 
 T. Henderson, D. Ranasinghe, V. G. Zakrzewski, J. Gao, N. Rega, 
 G. Zheng, W. Liang, M. Hada, M. Ehara, K. Toyota, R. Fukuda, 
 J. Hasegawa, M. Ishida, T. Nakajima, Y. Honda, O. Kitao, H. Nakai, 
 T. Vreven, K. Throssell, J. A. Montgomery, Jr., J. E. Peralta, 
 F. Ogliaro, M. J. Bearpark, J. J. Heyd, E. N. Brothers, K. N. Kudin, 
 V. N. Staroverov, T. A. Keith, R. Kobayashi, J. Normand, 
 K. Raghavachari, A. P. Rendell, J. C. Burant, S. S. Iyengar, 
 J. Tomasi, M. Cossi, J. M. Millam, M. Klene, C. Adamo, R. Cammi, 
 J. W. Ochterski, R. L. Martin, K. Morokuma, O. Farkas, 
 J. B. Foresman, and D. J. Fox, Gaussian, Inc., Wallingford CT, 2019.
 
 ******************************************
 Gaussian 16:  ES64L-G16RevC.01  3-Jul-2019
                29-Feb-2020 
 ******************************************
 %chk=c2c1im_cso3.chk
 %nprocs=12
 Will use up to   12 processors via shared memory.
 %mem=32Gb
 Default route: test
 --------
 #CBS-QB3
 --------
 1/18=20,19=15,26=3,38=1/1,3;
 2/9=110,12=2,17=6,18=5,40=1/2;
 3/5=4,6=6,7=700,11=2,25=1,30=1,71=1,74=-5/1,2,3;
 4//1;
 5/5=2,38=5/2;
 6/7=2,8=2,9=2,10=2,28=1/1;
 7//1,2,3,16;
 1/18=20,19=15,26=3/3(2);
 2/9=110/2;
 99//99;
 2/9=110/2;
 3/5=4,6=6,7=700,11=2,25=1,30=1,71=1,74=-5/1,2,3;
 4/5=5,16=3,69=1/1;
 5/5=2,38=5/2;
 7//1,2,3,16;
 1/18=20,19=15,26=3/3(-5);
 2/9=110/2;
 6/7=2,8=2,9=2,10=2,19=2,28=1/1;
 99/9=1/99;
 ---------------
 c2c1im_cso3.gjf
 ---------------
 Symbolic Z-matrix:
 Charge =  0 Multiplicity = 1
 C                    -0.95125  -2.71331  -0.41076 
 C                    -1.517    -1.93557   0.77171 
 N                    -1.71433  -0.54034   0.38784 
 C                    -2.48225  -0.10344  -0.65824 
 C                    -2.21951   1.22014  -0.81368 
 N                    -1.30279   1.55687   0.14443 
 C                    -0.99546   0.47605   0.85373 
 C                    -0.58684   2.81779   0.21781 
 C                     3.36956  -0.35002  -0.56299 
 S                     1.70138  -0.0248   -0.02017 
 O                     0.86141  -0.04397  -1.22368 
 O                     1.36704  -1.10474   0.92148 
 O                     1.74028   1.29645   0.62484 
 H                    -0.05629  -2.21272  -0.7776 
 H                    -1.68     -2.77972  -1.21812 
 H                    -0.69009  -3.71836  -0.08277 
 H                    -0.80487  -1.94086   1.59982 
 H                    -2.47479  -2.34735   1.10542 
 H                    -3.14397  -0.75726  -1.1983 
 H                    -2.60252   1.9384   -1.51708 
 H                    -0.27502   0.42875   1.65179 
 H                    -0.14616   2.91449   1.20728 
 H                    -1.27176   3.64062   0.01694 
 H                     0.21402   2.79397  -0.52299 
 H                     4.01233  -0.33858   0.31124 
 H                     3.65119   0.43035  -1.26261 
 H                     3.38213  -1.32394  -1.04163 
 
 Add virtual bond connecting atoms H14        and O11        Dist= 4.53D+00.
 Add virtual bond connecting atoms H14        and O12        Dist= 4.68D+00.
 Add virtual bond connecting atoms H17        and O12        Dist= 4.58D+00.
 Add virtual bond connecting atoms H21        and O12        Dist= 4.46D+00.
 Add virtual bond connecting atoms H21        and O13        Dist= 4.58D+00.

 GradGradGradGradGradGradGradGradGradGradGradGradGradGradGradGradGradGrad
 Berny optimization.
 Initialization pass.
                           ----------------------------
                           !    Initial Parameters    !
                           ! (Angstroms and Degrees)  !
 --------------------------                            --------------------------
 ! Name  Definition              Value          Derivative Info.                !
 --------------------------------------------------------------------------------
 ! R1    R(1,2)                  1.5242         estimate D2E/DX2                !
 ! R2    R(1,14)                 1.0891         estimate D2E/DX2                !
 ! R3    R(1,15)                 1.0896         estimate D2E/DX2                !
 ! R4    R(1,16)                 1.089          estimate D2E/DX2                !
 ! R5    R(2,3)                  1.4605         estimate D2E/DX2                !
 ! R6    R(2,17)                 1.0922         estimate D2E/DX2                !
 ! R7    R(2,18)                 1.0947         estimate D2E/DX2                !
 ! R8    R(3,4)                  1.3693         estimate D2E/DX2                !
 ! R9    R(3,7)                  1.3292         estimate D2E/DX2                !
 ! R10   R(4,5)                  1.3583         estimate D2E/DX2                !
 ! R11   R(4,19)                 1.0756         estimate D2E/DX2                !
 ! R12   R(5,6)                  1.3681         estimate D2E/DX2                !
 ! R13   R(5,20)                 1.0758         estimate D2E/DX2                !
 ! R14   R(6,7)                  1.3288         estimate D2E/DX2                !
 ! R15   R(6,8)                  1.4519         estimate D2E/DX2                !
 ! R16   R(7,21)                 1.0762         estimate D2E/DX2                !
 ! R17   R(8,22)                 1.0875         estimate D2E/DX2                !
 ! R18   R(8,23)                 1.0893         estimate D2E/DX2                !
 ! R19   R(8,24)                 1.0912         estimate D2E/DX2                !
 ! R20   R(9,10)                 1.7842         estimate D2E/DX2                !
 ! R21   R(9,25)                 1.0852         estimate D2E/DX2                !
 ! R22   R(9,26)                 1.0852         estimate D2E/DX2                !
 ! R23   R(9,27)                 1.0853         estimate D2E/DX2                !
 ! R24   R(10,11)                1.4678         estimate D2E/DX2                !
 ! R25   R(10,12)                1.4713         estimate D2E/DX2                !
 ! R26   R(10,13)                1.4708         estimate D2E/DX2                !
 ! R27   R(11,14)                2.3968         estimate D2E/DX2                !
 ! R28   R(12,14)                2.478          estimate D2E/DX2                !
 ! R29   R(12,17)                2.4241         estimate D2E/DX2                !
 ! R30   R(12,21)                2.3625         estimate D2E/DX2                !
 ! R31   R(13,21)                2.4226         estimate D2E/DX2                !
 ! A1    A(2,1,14)             109.3776         estimate D2E/DX2                !
 ! A2    A(2,1,15)             110.9575         estimate D2E/DX2                !
 ! A3    A(2,1,16)             109.0434         estimate D2E/DX2                !
 ! A4    A(14,1,15)            109.149          estimate D2E/DX2                !
 ! A5    A(14,1,16)            109.1831         estimate D2E/DX2                !
 ! A6    A(15,1,16)            109.1051         estimate D2E/DX2                !
 ! A7    A(1,2,3)              109.4941         estimate D2E/DX2                !
 ! A8    A(1,2,17)             110.1039         estimate D2E/DX2                !
 ! A9    A(1,2,18)             111.674          estimate D2E/DX2                !
 ! A10   A(3,2,17)             106.9782         estimate D2E/DX2                !
 ! A11   A(3,2,18)             108.7401         estimate D2E/DX2                !
 ! A12   A(17,2,18)            109.7261         estimate D2E/DX2                !
 ! A13   A(2,3,4)              125.5495         estimate D2E/DX2                !
 ! A14   A(2,3,7)              124.4224         estimate D2E/DX2                !
 ! A15   A(4,3,7)              109.0924         estimate D2E/DX2                !
 ! A16   A(3,4,5)              106.8496         estimate D2E/DX2                !
 ! A17   A(3,4,19)             122.3196         estimate D2E/DX2                !
 ! A18   A(5,4,19)             130.8308         estimate D2E/DX2                !
 ! A19   A(4,5,6)              106.816          estimate D2E/DX2                !
 ! A20   A(4,5,20)             131.0352         estimate D2E/DX2                !
 ! A21   A(6,5,20)             122.1487         estimate D2E/DX2                !
 ! A22   A(5,6,7)              109.1837         estimate D2E/DX2                !
 ! A23   A(5,6,8)              125.4209         estimate D2E/DX2                !
 ! A24   A(7,6,8)              124.4284         estimate D2E/DX2                !
 ! A25   A(3,7,6)              108.0454         estimate D2E/DX2                !
 ! A26   A(3,7,21)             126.0399         estimate D2E/DX2                !
 ! A27   A(6,7,21)             125.9031         estimate D2E/DX2                !
 ! A28   A(6,8,22)             108.8472         estimate D2E/DX2                !
 ! A29   A(6,8,23)             109.6734         estimate D2E/DX2                !
 ! A30   A(6,8,24)             107.9777         estimate D2E/DX2                !
 ! A31   A(22,8,23)            110.8193         estimate D2E/DX2                !
 ! A32   A(22,8,24)            108.798          estimate D2E/DX2                !
 ! A33   A(23,8,24)            110.6574         estimate D2E/DX2                !
 ! A34   A(10,9,25)            107.8662         estimate D2E/DX2                !
 ! A35   A(10,9,26)            107.9206         estimate D2E/DX2                !
 ! A36   A(10,9,27)            107.9745         estimate D2E/DX2                !
 ! A37   A(25,9,26)            110.9813         estimate D2E/DX2                !
 ! A38   A(25,9,27)            110.9721         estimate D2E/DX2                !
 ! A39   A(26,9,27)            110.9759         estimate D2E/DX2                !
 ! A40   A(9,10,11)            106.4528         estimate D2E/DX2                !
 ! A41   A(9,10,12)            105.8661         estimate D2E/DX2                !
 ! A42   A(9,10,13)            105.8096         estimate D2E/DX2                !
 ! A43   A(11,10,12)           112.653          estimate D2E/DX2                !
 ! A44   A(11,10,13)           112.7341         estimate D2E/DX2                !
 ! A45   A(12,10,13)           112.6254         estimate D2E/DX2                !
 ! A46   A(10,11,14)            94.4925         estimate D2E/DX2                !
 ! A47   A(10,12,14)            91.1393         estimate D2E/DX2                !
 ! A48   A(10,12,17)           129.4833         estimate D2E/DX2                !
 ! A49   A(10,12,21)            83.0704         estimate D2E/DX2                !
 ! A50   A(14,12,17)            61.5116         estimate D2E/DX2                !
 ! A51   A(14,12,21)            95.9096         estimate D2E/DX2                !
 ! A52   A(17,12,21)            60.9641         estimate D2E/DX2                !
 ! A53   A(10,13,21)            80.9178         estimate D2E/DX2                !
 ! A54   A(1,14,11)            142.4888         estimate D2E/DX2                !
 ! A55   A(1,14,12)            116.5239         estimate D2E/DX2                !
 ! A56   A(11,14,12)            60.2048         estimate D2E/DX2                !
 ! A57   A(2,17,12)            111.7362         estimate D2E/DX2                !
 ! A58   A(7,21,12)            105.3426         estimate D2E/DX2                !
 ! A59   A(7,21,13)            103.1085         estimate D2E/DX2                !
 ! A60   A(12,21,13)            61.5263         estimate D2E/DX2                !
 ! D1    D(14,1,2,3)            53.6303         estimate D2E/DX2                !
 ! D2    D(14,1,2,17)          -63.7204         estimate D2E/DX2                !
 ! D3    D(14,1,2,18)          174.123          estimate D2E/DX2                !
 ! D4    D(15,1,2,3)           -66.8385         estimate D2E/DX2                !
 ! D5    D(15,1,2,17)          175.8108         estimate D2E/DX2                !
 ! D6    D(15,1,2,18)           53.6542         estimate D2E/DX2                !
 ! D7    D(16,1,2,3)           172.9637         estimate D2E/DX2                !
 ! D8    D(16,1,2,17)           55.6129         estimate D2E/DX2                !
 ! D9    D(16,1,2,18)          -66.5436         estimate D2E/DX2                !
 ! D10   D(2,1,14,11)          -40.2538         estimate D2E/DX2                !
 ! D11   D(2,1,14,12)           34.566          estimate D2E/DX2                !
 ! D12   D(15,1,14,11)          81.3129         estimate D2E/DX2                !
 ! D13   D(15,1,14,12)         156.1328         estimate D2E/DX2                !
 ! D14   D(16,1,14,11)        -159.5008         estimate D2E/DX2                !
 ! D15   D(16,1,14,12)         -84.681          estimate D2E/DX2                !
 ! D16   D(1,2,3,4)             57.1775         estimate D2E/DX2                !
 ! D17   D(1,2,3,7)           -110.5294         estimate D2E/DX2                !
 ! D18   D(17,2,3,4)           176.4736         estimate D2E/DX2                !
 ! D19   D(17,2,3,7)             8.7667         estimate D2E/DX2                !
 ! D20   D(18,2,3,4)           -65.0861         estimate D2E/DX2                !
 ! D21   D(18,2,3,7)           127.2069         estimate D2E/DX2                !
 ! D22   D(1,2,17,12)           54.951          estimate D2E/DX2                !
 ! D23   D(3,2,17,12)          -63.9507         estimate D2E/DX2                !
 ! D24   D(18,2,17,12)         178.2528         estimate D2E/DX2                !
 ! D25   D(2,3,4,5)           -169.7714         estimate D2E/DX2                !
 ! D26   D(2,3,4,19)            10.3208         estimate D2E/DX2                !
 ! D27   D(7,3,4,5)             -0.4823         estimate D2E/DX2                !
 ! D28   D(7,3,4,19)           179.6099         estimate D2E/DX2                !
 ! D29   D(2,3,7,6)            170.4662         estimate D2E/DX2                !
 ! D30   D(2,3,7,21)            -8.3519         estimate D2E/DX2                !
 ! D31   D(4,3,7,6)              1.0289         estimate D2E/DX2                !
 ! D32   D(4,3,7,21)          -177.7891         estimate D2E/DX2                !
 ! D33   D(3,4,5,6)             -0.2346         estimate D2E/DX2                !
 ! D34   D(3,4,5,20)           179.6731         estimate D2E/DX2                !
 ! D35   D(19,4,5,6)           179.6625         estimate D2E/DX2                !
 ! D36   D(19,4,5,20)           -0.4298         estimate D2E/DX2                !
 ! D37   D(4,5,6,7)              0.8735         estimate D2E/DX2                !
 ! D38   D(4,5,6,8)            169.992          estimate D2E/DX2                !
 ! D39   D(20,5,6,7)          -179.0442         estimate D2E/DX2                !
 ! D40   D(20,5,6,8)            -9.9257         estimate D2E/DX2                !
 ! D41   D(5,6,7,3)             -1.1801         estimate D2E/DX2                !
 ! D42   D(5,6,7,21)           177.64           estimate D2E/DX2                !
 ! D43   D(8,6,7,3)           -170.431          estimate D2E/DX2                !
 ! D44   D(8,6,7,21)             8.3891         estimate D2E/DX2                !
 ! D45   D(5,6,8,22)           164.5593         estimate D2E/DX2                !
 ! D46   D(5,6,8,23)            43.1679         estimate D2E/DX2                !
 ! D47   D(5,6,8,24)           -77.4888         estimate D2E/DX2                !
 ! D48   D(7,6,8,22)           -27.9242         estimate D2E/DX2                !
 ! D49   D(7,6,8,23)          -149.3156         estimate D2E/DX2                !
 ! D50   D(7,6,8,24)            90.0276         estimate D2E/DX2                !
 ! D51   D(3,7,21,12)           60.4607         estimate D2E/DX2                !
 ! D52   D(3,7,21,13)          124.1198         estimate D2E/DX2                !
 ! D53   D(6,7,21,12)         -118.1518         estimate D2E/DX2                !
 ! D54   D(6,7,21,13)          -54.4927         estimate D2E/DX2                !
 ! D55   D(25,9,10,11)         179.8608         estimate D2E/DX2                !
 ! D56   D(25,9,10,12)         -60.0444         estimate D2E/DX2                !
 ! D57   D(25,9,10,13)          59.7007         estimate D2E/DX2                !
 ! D58   D(26,9,10,11)          59.8852         estimate D2E/DX2                !
 ! D59   D(26,9,10,12)         179.98           estimate D2E/DX2                !
 ! D60   D(26,9,10,13)         -60.2749         estimate D2E/DX2                !
 ! D61   D(27,9,10,11)         -60.1445         estimate D2E/DX2                !
 ! D62   D(27,9,10,12)          59.9503         estimate D2E/DX2                !
 ! D63   D(27,9,10,13)         179.6954         estimate D2E/DX2                !
 ! D64   D(9,10,11,14)         103.7651         estimate D2E/DX2                !
 ! D65   D(12,10,11,14)        -11.8385         estimate D2E/DX2                !
 ! D66   D(13,10,11,14)       -140.6566         estimate D2E/DX2                !
 ! D67   D(9,10,12,14)        -104.5436         estimate D2E/DX2                !
 ! D68   D(9,10,12,17)        -157.5489         estimate D2E/DX2                !
 ! D69   D(9,10,12,21)         159.6412         estimate D2E/DX2                !
 ! D70   D(11,10,12,14)         11.412          estimate D2E/DX2                !
 ! D71   D(11,10,12,17)        -41.5933         estimate D2E/DX2                !
 ! D72   D(11,10,12,21)        -84.4032         estimate D2E/DX2                !
 ! D73   D(13,10,12,14)        140.2865         estimate D2E/DX2                !
 ! D74   D(13,10,12,17)         87.2812         estimate D2E/DX2                !
 ! D75   D(13,10,12,21)         44.4713         estimate D2E/DX2                !
 ! D76   D(9,10,13,21)        -158.5804         estimate D2E/DX2                !
 ! D77   D(11,10,13,21)         85.456          estimate D2E/DX2                !
 ! D78   D(12,10,13,21)        -43.3764         estimate D2E/DX2                !
 ! D79   D(10,11,14,1)         103.1352         estimate D2E/DX2                !
 ! D80   D(10,11,14,12)          7.4429         estimate D2E/DX2                !
 ! D81   D(10,12,14,1)        -144.779          estimate D2E/DX2                !
 ! D82   D(10,12,14,11)         -7.4034         estimate D2E/DX2                !
 ! D83   D(17,12,14,1)          -9.3154         estimate D2E/DX2                !
 ! D84   D(17,12,14,11)        128.0601         estimate D2E/DX2                !
 ! D85   D(21,12,14,1)         -61.6285         estimate D2E/DX2                !
 ! D86   D(21,12,14,11)         75.7471         estimate D2E/DX2                !
 ! D87   D(10,12,17,2)          36.5254         estimate D2E/DX2                !
 ! D88   D(14,12,17,2)         -28.7797         estimate D2E/DX2                !
 ! D89   D(21,12,17,2)          87.0213         estimate D2E/DX2                !
 ! D90   D(10,12,21,7)          70.2927         estimate D2E/DX2                !
 ! D91   D(10,12,21,13)        -26.5263         estimate D2E/DX2                !
 ! D92   D(14,12,21,7)         -20.1402         estimate D2E/DX2                !
 ! D93   D(14,12,21,13)       -116.9592         estimate D2E/DX2                !
 ! D94   D(17,12,21,7)         -72.845          estimate D2E/DX2                !
 ! D95   D(17,12,21,13)       -169.664          estimate D2E/DX2                !
 ! D96   D(10,13,21,7)         -73.8424         estimate D2E/DX2                !
 ! D97   D(10,13,21,12)         26.688          estimate D2E/DX2                !
 --------------------------------------------------------------------------------
 Trust Radius=3.00D-01 FncErr=1.00D-07 GrdErr=1.00D-06 EigMax=2.50D+02 EigMin=1.00D-04
 Number of steps in this run=    162 maximum allowed number of steps=    162.
 GradGradGradGradGradGradGradGradGradGradGradGradGradGradGradGradGradGrad

                          Input orientation:                          
 ---------------------------------------------------------------------
 Center     Atomic      Atomic             Coordinates (Angstroms)
 Number     Number       Type             X           Y           Z
 ---------------------------------------------------------------------
      1          6           0       -0.951250   -2.713310   -0.410760
      2          6           0       -1.517000   -1.935570    0.771710
      3          7           0       -1.714330   -0.540340    0.387840
      4          6           0       -2.482250   -0.103440   -0.658240
      5          6           0       -2.219510    1.220140   -0.813680
      6          7           0       -1.302790    1.556870    0.144430
      7          6           0       -0.995460    0.476050    0.853730
      8          6           0       -0.586840    2.817790    0.217810
      9          6           0        3.369560   -0.350020   -0.562990
     10         16           0        1.701380   -0.024800   -0.020170
     11          8           0        0.861410   -0.043970   -1.223680
     12          8           0        1.367040   -1.104740    0.921480
     13          8           0        1.740280    1.296450    0.624840
     14          1           0       -0.056290   -2.212720   -0.777600
     15          1           0       -1.680000   -2.779720   -1.218120
     16          1           0       -0.690090   -3.718360   -0.082770
     17          1           0       -0.804870   -1.940860    1.599820
     18          1           0       -2.474790   -2.347350    1.105420
     19          1           0       -3.143970   -0.757260   -1.198300
     20          1           0       -2.602520    1.938400   -1.517080
     21          1           0       -0.275020    0.428750    1.651790
     22          1           0       -0.146160    2.914490    1.207280
     23          1           0       -1.271760    3.640620    0.016940
     24          1           0        0.214020    2.793970   -0.522990
     25          1           0        4.012330   -0.338580    0.311240
     26          1           0        3.651190    0.430350   -1.262610
     27          1           0        3.382130   -1.323940   -1.041630
 ---------------------------------------------------------------------
                    Distance matrix (angstroms):
                    1          2          3          4          5
     1  C    0.000000
     2  C    1.524201   0.000000
     3  N    2.437591   1.460466   0.000000
     4  C    3.035890   2.516578   1.369258   0.000000
     5  C    4.152452   3.600762   2.190467   1.358329   0.000000
     6  N    4.320446   3.554786   2.151024   2.189072   1.368115
     7  C    3.431167   2.468733   1.329239   2.198274   2.198232
     8  C    5.578617   4.875083   3.546432   3.590770   2.506405
     9  C    4.927242   5.307906   5.175542   5.857777   5.810848
    10  S    3.796985   3.825714   3.478409   4.232739   4.189620
    11  O    3.327454   3.635460   3.078606   3.391655   3.355316
    12  O    3.120389   3.005062   3.177760   4.279620   4.612937
    13  O    4.939127   4.591013   3.919732   4.629875   4.213680
    14  H    1.089089   2.147288   2.627585   3.216923   4.057752
    15  H    1.089641   2.167621   2.755923   2.849482   4.056294
    16  H    1.088994   2.142955   3.371995   4.075616   5.221316
    17  H    2.158828   1.092210   2.063364   3.359844   4.221150
    18  H    2.180345   1.094663   2.087703   2.854065   4.058953
    19  H    3.042100   2.813607   2.146338   1.075648   2.216454
    20  H    5.058561   4.628667   3.249885   2.218374   1.075809
    21  H    3.818893   2.811950   2.146699   3.239032   3.238191
    22  H    5.910868   5.058854   3.881558   4.247986   3.354681
    23  H    6.376369   5.632381   4.220647   3.992385   2.728898
    24  H    5.630327   5.200118   3.958001   3.960196   2.912647
    25  H    5.549572   5.773725   5.730725   6.570750   6.521571
    26  H    5.638324   6.037071   5.696932   6.186217   5.940574
    27  H    4.594184   5.259636   5.350824   6.002296   6.156515
                    6          7          8          9         10
     6  N    0.000000
     7  C    1.328808   0.000000
     8  C    1.451857   2.460713   0.000000
     9  C    5.095834   4.662927   5.128135   0.000000
    10  S    3.399090   2.878801   3.656898   1.784165   0.000000
    11  O    3.019632   2.834435   3.516389   2.611703   1.467772
    12  O    3.849151   2.843395   4.438360   2.604485   1.471312
    13  O    3.091745   2.865261   2.809917   2.603144   1.470800
    14  H    4.075992   3.282189   5.155420   3.905401   2.906905
    15  H    4.561233   3.919336   5.881242   5.641870   4.523096
    16  H    5.315550   4.308522   6.543872   5.296894   4.400617
    17  H    3.821021   2.536618   4.960064   4.963304   3.546399
    18  H    4.188081   3.197398   5.570537   6.397605   4.909337
    19  H    3.247779   3.216827   4.617929   6.557098   5.040030
    20  H    2.143707   3.215875   2.801095   6.466289   4.961698
    21  H    2.145018   1.076183   2.803755   4.335285   2.628177
    22  H    2.076192   2.606204   1.087474   5.113821   3.682318
    23  H    2.087877   3.284975   1.089272   6.148445   4.719771
    24  H    2.067989   2.954819   1.091205   4.454627   3.226536
    25  H    5.645446   5.102536   5.578868   1.085155   2.355585
    26  H    5.271691   5.106108   5.084527   1.085247   2.356391
    27  H    5.626214   5.098593   5.873060   1.085253   2.357131
                   11         12         13         14         15
    11  O    0.000000
    12  O    2.445937   0.000000
    13  O    2.446664   2.448064   0.000000
    14  H    2.396797   2.477975   4.184349   0.000000
    15  H    3.734049   4.082634   5.631161   1.775382   0.000000
    16  H    4.148490   3.474379   5.617449   1.775230   1.774820
    17  H    3.787721   2.424136   4.231850   2.507271   3.067625
    18  H    4.675521   4.041976   5.592410   3.068066   2.493486
    19  H    4.068476   4.996341   5.603344   3.439349   2.496787
    20  H    4.001835   5.564592   4.884653   4.925639   4.816750
    21  H    3.127821   2.362479   2.422594   3.595434   4.528204
    22  H    3.959451   4.304145   2.552635   5.498737   6.376461
    23  H    4.434609   5.504534   3.864849   6.030775   6.550786
    24  H    2.993991   4.314613   2.426839   5.020442   5.927608
    25  H    3.517253   2.820807   2.816714   4.609950   6.379712
    26  H    2.830083   3.513416   2.822087   4.578915   6.223192
    27  H    2.832930   2.821779   3.512725   3.561232   5.270257
                   16         17         18         19         20
    16  H    0.000000
    17  H    2.450263   0.000000
    18  H    2.544920   1.788379   0.000000
    19  H    4.004254   3.834289   2.878075   0.000000
    20  H    6.141137   5.291056   5.026079   2.767918   0.000000
    21  H    4.514366   2.428681   3.583886   4.214322   4.211655
    22  H    6.778996   4.915527   5.754985   5.315584   3.795865
    23  H    7.382606   5.820345   6.203858   4.931869   2.649848
    24  H    6.589511   5.288012   6.026159   4.933901   3.106946
    25  H    5.804387   5.237667   6.837295   7.325751   7.230742
    26  H    6.119684   5.802811   7.130976   6.898460   6.438001
    27  H    4.820336   4.988869   6.321448   6.552530   6.832639
                   21         22         23         24         25
    21  H    0.000000
    22  H    2.528458   0.000000
    23  H    3.739296   1.791968   0.000000
    24  H    3.250091   1.771465   1.793288   0.000000
    25  H    4.557109   5.355221   6.621348   4.993593   0.000000
    26  H    4.889668   5.166350   6.014858   4.236493   1.788485
    27  H    4.868386   5.955730   6.886662   5.221407   1.788391
                   26         27
    26  H    0.000000
    27  H    1.788507   0.000000
 Stoichiometry    C7H14N2O3S
 Framework group  C1[X(C7H14N2O3S)]
 Deg. of freedom    75
 Full point group                 C1      NOp   1
 Largest Abelian subgroup         C1      NOp   1
 Largest concise Abelian subgroup C1      NOp   1
                         Standard orientation:                         
 ---------------------------------------------------------------------
 Center     Atomic      Atomic             Coordinates (Angstroms)
 Number     Number       Type             X           Y           Z
 ---------------------------------------------------------------------
      1          6           0       -0.962465    2.730633    0.420298
      2          6           0       -1.531973    1.960324   -0.765227
      3          7           0       -1.742046    0.565979   -0.384919
      4          6           0       -2.516134    0.133315    0.658371
      5          6           0       -2.265002   -1.192786    0.811496
      6          7           0       -1.348891   -1.535179   -0.145189
      7          6           0       -1.030715   -0.455450   -0.851362
      8          6           0       -0.643490   -2.801966   -0.219672
      9          6           0        3.337768    0.330425    0.577499
     10         16           0        1.668187    0.020569    0.030018
     11          8           0        0.825545    0.044224    1.231579
     12          8           0        1.345264    1.105375   -0.910023
     13          8           0        1.697414   -1.299543   -0.617827
     14          1           0       -0.072660    2.221660    0.788142
     15          1           0       -1.692546    2.801452    1.226079
     16          1           0       -0.692008    3.734149    0.095156
     17          1           0       -0.817853    1.961388   -1.591638
     18          1           0       -2.485438    2.380951   -1.100286
     19          1           0       -3.173568    0.791540    1.198314
     20          1           0       -2.655765   -1.909313    1.512395
     21          1           0       -0.308001   -0.412514   -1.647610
     22          1           0       -0.201291   -2.900229   -1.208310
     23          1           0       -1.335842   -3.619392   -0.022247
     24          1           0        0.155776   -2.786572    0.523069
     25          1           0        3.982498    0.315450   -0.295233
     26          1           0        3.611100   -0.453843    1.276050
     27          1           0        3.357458    1.303149    1.058326
 ---------------------------------------------------------------------
 Rotational constants (GHZ):           0.9988976           0.6832780           0.4819943
 Standard basis: 6-311G(2d,d,p) (5D, 7F)
 There are   345 symmetry adapted cartesian basis functions of A   symmetry.
 There are   331 symmetry adapted basis functions of A   symmetry.
   331 basis functions,   548 primitive gaussians,   345 cartesian basis functions
    55 alpha electrons       55 beta electrons
       nuclear repulsion energy      1071.0346338434 Hartrees.
 NAtoms=   27 NActive=   27 NUniq=   27 SFac= 1.00D+00 NAtFMM=   60 NAOKFM=F Big=F
 Integral buffers will be    131072 words long.
 Raffenetti 2 integral format.
 Two-electron integral symmetry is turned on.
 One-electron integrals computed using PRISM.
 NBasis=   331 RedAO= T EigKep=  7.39D-04  NBF=   331
 NBsUse=   331 1.00D-06 EigRej= -1.00D+00 NBFU=   331
 ExpMin= 7.71D-02 ExpMax= 9.34D+04 ExpMxC= 3.17D+03 IAcc=3 IRadAn=         5 AccDes= 0.00D+00
 Harris functional with IExCor=  402 and IRadAn=       5 diagonalized for initial guess.
 HarFok:  IExCor=  402 AccDes= 0.00D+00 IRadAn=         5 IDoV= 1 UseB2=F ITyADJ=14
 ICtDFT=  3500011 ScaDFX=  1.000000  1.000000  1.000000  1.000000
 FoFCou: FMM=F IPFlag=           0 FMFlag=      100000 FMFlg1=           0
         NFxFlg=           0 DoJE=T BraDBF=F KetDBF=T FulRan=T
         wScrn=  0.000000 ICntrl=       500 IOpCl=  0 I1Cent=   200000004 NGrid=           0
         NMat0=    1 NMatS0=      1 NMatT0=    0 NMatD0=    1 NMtDS0=    0 NMtDT0=    0
 Petite list used in FoFCou.
 Requested convergence on RMS density matrix=1.00D-08 within 128 cycles.
 Requested convergence on MAX density matrix=1.00D-06.
 Requested convergence on             energy=1.00D-06.
 No special actions if energy rises.
 Integral accuracy reduced to 1.0D-05 until final iterations.
 Initial convergence to 1.0D-05 achieved.  Increase integral accuracy.
 SCF Done:  E(RB3LYP) =  -1008.69578823     A.U. after   13 cycles
            NFock= 13  Conv=0.91D-08     -V/T= 2.0024

 **********************************************************************

            Population analysis using the SCF Density.

 **********************************************************************

 Orbital symmetries:
       Occupied  (A) (A) (A) (A) (A) (A) (A) (A) (A) (A) (A) (A)
                 (A) (A) (A) (A) (A) (A) (A) (A) (A) (A) (A) (A)
                 (A) (A) (A) (A) (A) (A) (A) (A) (A) (A) (A) (A)
                 (A) (A) (A) (A) (A) (A) (A) (A) (A) (A) (A) (A)
                 (A) (A) (A) (A) (A) (A) (A)
       Virtual   (A) (A) (A) (A) (A) (A) (A) (A) (A) (A) (A) (A)
                 (A) (A) (A) (A) (A) (A) (A) (A) (A) (A) (A) (A)
                 (A) (A) (A) (A) (A) (A) (A) (A) (A) (A) (A) (A)
                 (A) (A) (A) (A) (A) (A) (A) (A) (A) (A) (A) (A)
                 (A) (A) (A) (A) (A) (A) (A) (A) (A) (A) (A) (A)
                 (A) (A) (A) (A) (A) (A) (A) (A) (A) (A) (A) (A)
                 (A) (A) (A) (A) (A) (A) (A) (A) (A) (A) (A) (A)
                 (A) (A) (A) (A) (A) (A) (A) (A) (A) (A) (A) (A)
                 (A) (A) (A) (A) (A) (A) (A) (A) (A) (A) (A) (A)
                 (A) (A) (A) (A) (A) (A) (A) (A) (A) (A) (A) (A)
                 (A) (A) (A) (A) (A) (A) (A) (A) (A) (A) (A) (A)
                 (A) (A) (A) (A) (A) (A) (A) (A) (A) (A) (A) (A)
                 (A) (A) (A) (A) (A) (A) (A) (A) (A) (A) (A) (A)
                 (A) (A) (A) (A) (A) (A) (A) (A) (A) (A) (A) (A)
                 (A) (A) (A) (A) (A) (A) (A) (A) (A) (A) (A) (A)
                 (A) (A) (A) (A) (A) (A) (A) (A) (A) (A) (A) (A)
                 (A) (A) (A) (A) (A) (A) (A) (A) (A) (A) (A) (A)
                 (A) (A) (A) (A) (A) (A) (A) (A) (A) (A) (A) (A)
                 (A) (A) (A) (A) (A) (A) (A) (A) (A) (A) (A) (A)
                 (A) (A) (A) (A) (A) (A) (A) (A) (A) (A) (A) (A)
                 (A) (A) (A) (A) (A) (A) (A) (A) (A) (A) (A) (A)
                 (A) (A) (A) (A) (A) (A) (A) (A) (A) (A) (A) (A)
                 (A) (A) (A) (A) (A) (A) (A) (A) (A) (A) (A) (A)
 The electronic state is 1-A.
 Alpha  occ. eigenvalues --  -88.98599 -19.04385 -19.04336 -19.04291 -14.41403
 Alpha  occ. eigenvalues --  -14.41173 -10.27484 -10.23984 -10.23900 -10.22887
 Alpha  occ. eigenvalues --  -10.22203 -10.16017 -10.15255  -8.04362  -6.00654
 Alpha  occ. eigenvalues --   -6.00644  -6.00569  -1.09481  -1.07644  -0.97521
 Alpha  occ. eigenvalues --   -0.93638  -0.93619  -0.82368  -0.79347  -0.74189
 Alpha  occ. eigenvalues --   -0.71598  -0.68015  -0.64461  -0.62815  -0.57055
 Alpha  occ. eigenvalues --   -0.53602  -0.51770  -0.50327  -0.49107  -0.48704
 Alpha  occ. eigenvalues --   -0.47713  -0.45879  -0.44480  -0.43761  -0.43015
 Alpha  occ. eigenvalues --   -0.42490  -0.41996  -0.39785  -0.38589  -0.38395
 Alpha  occ. eigenvalues --   -0.38291  -0.36491  -0.31834  -0.29942  -0.29559
 Alpha  occ. eigenvalues --   -0.28716  -0.25610  -0.25423  -0.25029  -0.21320
 Alpha virt. eigenvalues --   -0.02539  -0.00642   0.03312   0.04335   0.06217
 Alpha virt. eigenvalues --    0.07547   0.07645   0.08607   0.09518   0.10603
 Alpha virt. eigenvalues --    0.11183   0.12193   0.13024   0.13418   0.13825
 Alpha virt. eigenvalues --    0.14704   0.15068   0.16141   0.17354   0.18542
 Alpha virt. eigenvalues --    0.18874   0.19912   0.20113   0.21066   0.22443
 Alpha virt. eigenvalues --    0.23599   0.26737   0.27374   0.29177   0.30237
 Alpha virt. eigenvalues --    0.31111   0.31480   0.32366   0.33540   0.34326
 Alpha virt. eigenvalues --    0.35004   0.35762   0.35981   0.37480   0.37990
 Alpha virt. eigenvalues --    0.40388   0.41586   0.41913   0.43561   0.46632
 Alpha virt. eigenvalues --    0.49092   0.50096   0.51866   0.51977   0.53248
 Alpha virt. eigenvalues --    0.53433   0.54326   0.54852   0.56321   0.56901
 Alpha virt. eigenvalues --    0.57015   0.57380   0.58347   0.59452   0.60097
 Alpha virt. eigenvalues --    0.61093   0.61173   0.62104   0.62980   0.63452
 Alpha virt. eigenvalues --    0.64686   0.65483   0.66165   0.67497   0.69815
 Alpha virt. eigenvalues --    0.69976   0.70551   0.73056   0.74766   0.77140
 Alpha virt. eigenvalues --    0.77990   0.80179   0.84142   0.85294   0.87978
 Alpha virt. eigenvalues --    0.91391   0.92111   0.93811   0.94407   0.95249
 Alpha virt. eigenvalues --    0.98720   0.99469   1.01277   1.03293   1.04636
 Alpha virt. eigenvalues --    1.05333   1.07465   1.09911   1.10328   1.12732
 Alpha virt. eigenvalues --    1.14647   1.15391   1.17764   1.18157   1.19635
 Alpha virt. eigenvalues --    1.22290   1.23765   1.24282   1.25560   1.28065
 Alpha virt. eigenvalues --    1.31048   1.36363   1.37118   1.40200   1.41216
 Alpha virt. eigenvalues --    1.42247   1.45632   1.46035   1.47204   1.47782
 Alpha virt. eigenvalues --    1.49443   1.51062   1.51640   1.52488   1.52778
 Alpha virt. eigenvalues --    1.53444   1.54911   1.57062   1.57475   1.58587
 Alpha virt. eigenvalues --    1.59144   1.60226   1.62129   1.62741   1.64197
 Alpha virt. eigenvalues --    1.64992   1.66206   1.69232   1.70743   1.71440
 Alpha virt. eigenvalues --    1.72836   1.73145   1.74257   1.75628   1.77136
 Alpha virt. eigenvalues --    1.78650   1.80217   1.83229   1.85478   1.89256
 Alpha virt. eigenvalues --    1.90807   1.94020   1.94422   1.95089   1.95920
 Alpha virt. eigenvalues --    1.98927   2.01099   2.03291   2.04306   2.06013
 Alpha virt. eigenvalues --    2.08246   2.09416   2.10883   2.11184   2.12550
 Alpha virt. eigenvalues --    2.16932   2.18319   2.19961   2.20564   2.22512
 Alpha virt. eigenvalues --    2.24098   2.26544   2.27549   2.28649   2.28898
 Alpha virt. eigenvalues --    2.32624   2.36698   2.38291   2.39403   2.41205
 Alpha virt. eigenvalues --    2.41806   2.43272   2.45453   2.47488   2.48568
 Alpha virt. eigenvalues --    2.50244   2.51352   2.51523   2.52235   2.53092
 Alpha virt. eigenvalues --    2.54798   2.55945   2.56532   2.57435   2.58224
 Alpha virt. eigenvalues --    2.58579   2.59675   2.60768   2.61767   2.63039
 Alpha virt. eigenvalues --    2.65759   2.68653   2.69912   2.71916   2.74595
 Alpha virt. eigenvalues --    2.75483   2.79000   2.81783   2.84371   2.84959
 Alpha virt. eigenvalues --    2.88736   2.89415   2.90788   2.91569   2.93212
 Alpha virt. eigenvalues --    2.93877   2.95899   2.98077   2.99517   3.03002
 Alpha virt. eigenvalues --    3.07119   3.08147   3.10155   3.11270   3.15669
 Alpha virt. eigenvalues --    3.17266   3.25681   3.33916   3.35468   3.42451
 Alpha virt. eigenvalues --    3.44236   3.52050   3.54502   3.56351   3.57161
 Alpha virt. eigenvalues --    3.57944   3.60652   3.68633   3.73258   3.74148
 Alpha virt. eigenvalues --    3.77899   3.79970   3.80273   3.81275   3.82448
 Alpha virt. eigenvalues --    3.84391   3.89296   3.91582   3.93547   4.04873
 Alpha virt. eigenvalues --    4.21696   4.73176   4.93041   4.93969   4.94258
 Alpha virt. eigenvalues --    4.95493   4.96121   4.96777   5.05885   5.09519
 Alpha virt. eigenvalues --    5.21362   5.23503   5.24613   5.25633   8.10912
 Alpha virt. eigenvalues --   17.47165  17.52420  17.52844  23.70608  23.82229
 Alpha virt. eigenvalues --   23.88138  23.90879  23.93840  23.95310  24.15834
 Alpha virt. eigenvalues --   35.45863  35.60222  49.86770  49.87989  50.01046
 Alpha virt. eigenvalues --  189.15757
          Condensed to atoms (all electrons):
               1          2          3          4          5          6
     1  C    4.896997   0.361283  -0.056274  -0.006801   0.000657  -0.000375
     2  C    0.361283   4.881222   0.259041  -0.054110   0.006245   0.005908
     3  N   -0.056274   0.259041   6.480536   0.417811  -0.062055  -0.052521
     4  C   -0.006801  -0.054110   0.417811   4.799391   0.599852  -0.060158
     5  C    0.000657   0.006245  -0.062055   0.599852   4.796443   0.412265
     6  N   -0.000375   0.005908  -0.052521  -0.060158   0.412265   6.437170
     7  C   -0.001736  -0.050033   0.413909  -0.124622  -0.134527   0.418578
     8  C    0.000017  -0.000080   0.005289   0.007009  -0.048463   0.274392
     9  C   -0.000046  -0.000016  -0.000076   0.000008   0.000008  -0.000090
    10  S   -0.003124  -0.002381  -0.003956  -0.000927  -0.000408  -0.004329
    11  O   -0.008502  -0.001540  -0.008995   0.003180   0.006732  -0.009743
    12  O   -0.003468  -0.002767  -0.004498  -0.000278   0.000108   0.000361
    13  O    0.000012  -0.000141   0.000526   0.000164  -0.000533  -0.005351
    14  H    0.392139  -0.028401  -0.003810  -0.001092  -0.000628  -0.000254
    15  H    0.396133  -0.037466  -0.004670   0.004826   0.000607   0.000058
    16  H    0.395174  -0.029466   0.006113   0.000322   0.000000  -0.000008
    17  H   -0.027852   0.402585  -0.020590   0.005826  -0.000403   0.000555
    18  H   -0.045020   0.400104  -0.031154  -0.004943   0.000146  -0.000344
    19  H   -0.000625  -0.002689  -0.031593   0.415096  -0.031455   0.002861
    20  H    0.000025  -0.000197   0.002875  -0.032445   0.416290  -0.031392
    21  H    0.000179  -0.004290  -0.023589   0.002913   0.002756  -0.023989
    22  H    0.000005  -0.000002   0.000410  -0.000755   0.005984  -0.016517
    23  H   -0.000001   0.000014  -0.000339   0.001333  -0.008201  -0.025389
    24  H    0.000009  -0.000042  -0.000131  -0.000120  -0.000584  -0.033916
    25  H    0.000002   0.000001   0.000003  -0.000002  -0.000002   0.000004
    26  H    0.000006  -0.000005   0.000004  -0.000002  -0.000008  -0.000008
    27  H    0.000019   0.000004  -0.000008  -0.000010  -0.000000   0.000005
               7          8          9         10         11         12
     1  C   -0.001736   0.000017  -0.000046  -0.003124  -0.008502  -0.003468
     2  C   -0.050033  -0.000080  -0.000016  -0.002381  -0.001540  -0.002767
     3  N    0.413909   0.005289  -0.000076  -0.003956  -0.008995  -0.004498
     4  C   -0.124622   0.007009   0.000008  -0.000927   0.003180  -0.000278
     5  C   -0.134527  -0.048463   0.000008  -0.000408   0.006732   0.000108
     6  N    0.418578   0.274392  -0.000090  -0.004329  -0.009743   0.000361
     7  C    4.882808  -0.052009  -0.000715  -0.031552   0.014070  -0.007528
     8  C   -0.052009   4.776439   0.000059  -0.005369  -0.001495  -0.000201
     9  C   -0.000715   0.000059   4.922769   0.326212  -0.043383  -0.047485
    10  S   -0.031552  -0.005369   0.326212  13.529965   0.500959   0.509274
    11  O    0.014070  -0.001495  -0.043383   0.500959   8.116165  -0.038574
    12  O   -0.007528  -0.000201  -0.047485   0.509274  -0.038574   8.127771
    13  O   -0.004304   0.000218  -0.049105   0.533801  -0.039185  -0.038702
    14  H    0.003691  -0.000026  -0.000310  -0.006693   0.027415   0.005018
    15  H   -0.001011   0.000004  -0.000005   0.000463  -0.000291   0.000597
    16  H   -0.000073  -0.000000   0.000003   0.000641   0.000112   0.000172
    17  H   -0.007679  -0.000019   0.000138  -0.002327   0.000371   0.017415
    18  H    0.003810   0.000005   0.000002   0.000008  -0.000018   0.000616
    19  H    0.007841  -0.000179   0.000001   0.000051   0.000295  -0.000015
    20  H    0.007821  -0.004151   0.000001   0.000020   0.000462   0.000002
    21  H    0.397653  -0.003694   0.000643  -0.008738  -0.001462   0.015977
    22  H   -0.007375   0.403790   0.000058  -0.001020   0.000392  -0.000136
    23  H    0.005767   0.384455   0.000006   0.000502  -0.000024  -0.000005
    24  H   -0.001646   0.407275  -0.000143   0.001002   0.006367   0.000025
    25  H   -0.000001  -0.000001   0.391848  -0.016311   0.002312  -0.000575
    26  H    0.000030   0.000005   0.391408  -0.017523   0.000016   0.002423
    27  H    0.000047  -0.000007   0.391911  -0.017720  -0.000243  -0.000571
              13         14         15         16         17         18
     1  C    0.000012   0.392139   0.396133   0.395174  -0.027852  -0.045020
     2  C   -0.000141  -0.028401  -0.037466  -0.029466   0.402585   0.400104
     3  N    0.000526  -0.003810  -0.004670   0.006113  -0.020590  -0.031154
     4  C    0.000164  -0.001092   0.004826   0.000322   0.005826  -0.004943
     5  C   -0.000533  -0.000628   0.000607   0.000000  -0.000403   0.000146
     6  N   -0.005351  -0.000254   0.000058  -0.000008   0.000555  -0.000344
     7  C   -0.004304   0.003691  -0.001011  -0.000073  -0.007679   0.003810
     8  C    0.000218  -0.000026   0.000004  -0.000000  -0.000019   0.000005
     9  C   -0.049105  -0.000310  -0.000005   0.000003   0.000138   0.000002
    10  S    0.533801  -0.006693   0.000463   0.000641  -0.002327   0.000008
    11  O   -0.039185   0.027415  -0.000291   0.000112   0.000371  -0.000018
    12  O   -0.038702   0.005018   0.000597   0.000172   0.017415   0.000616
    13  O    8.101304  -0.000003   0.000002   0.000003  -0.000099  -0.000007
    14  H   -0.000003   0.480588  -0.028533  -0.015416  -0.005829   0.006834
    15  H    0.000002  -0.028533   0.613900  -0.029697   0.007746  -0.008339
    16  H    0.000003  -0.015416  -0.029697   0.569466  -0.006186  -0.000740
    17  H   -0.000099  -0.005829   0.007746  -0.006186   0.504881  -0.029533
    18  H   -0.000007   0.006834  -0.008339  -0.000740  -0.029533   0.579532
    19  H    0.000002   0.000309  -0.000197  -0.000093   0.000013   0.000743
    20  H   -0.000030   0.000001   0.000028  -0.000001   0.000017   0.000009
    21  H    0.012529   0.000631  -0.000085  -0.000033   0.002253   0.000135
    22  H    0.003756  -0.000003   0.000000  -0.000000  -0.000015  -0.000002
    23  H    0.001542  -0.000000  -0.000000  -0.000000   0.000002  -0.000003
    24  H    0.006831  -0.000018   0.000001   0.000001   0.000001   0.000002
    25  H   -0.001240  -0.000024  -0.000000  -0.000001  -0.000015   0.000000
    26  H   -0.001221  -0.000028  -0.000001   0.000001  -0.000009  -0.000000
    27  H    0.002376   0.000520  -0.000008  -0.000003  -0.000011   0.000001
              19         20         21         22         23         24
     1  C   -0.000625   0.000025   0.000179   0.000005  -0.000001   0.000009
     2  C   -0.002689  -0.000197  -0.004290  -0.000002   0.000014  -0.000042
     3  N   -0.031593   0.002875  -0.023589   0.000410  -0.000339  -0.000131
     4  C    0.415096  -0.032445   0.002913  -0.000755   0.001333  -0.000120
     5  C   -0.031455   0.416290   0.002756   0.005984  -0.008201  -0.000584
     6  N    0.002861  -0.031392  -0.023989  -0.016517  -0.025389  -0.033916
     7  C    0.007841   0.007821   0.397653  -0.007375   0.005767  -0.001646
     8  C   -0.000179  -0.004151  -0.003694   0.403790   0.384455   0.407275
     9  C    0.000001   0.000001   0.000643   0.000058   0.000006  -0.000143
    10  S    0.000051   0.000020  -0.008738  -0.001020   0.000502   0.001002
    11  O    0.000295   0.000462  -0.001462   0.000392  -0.000024   0.006367
    12  O   -0.000015   0.000002   0.015977  -0.000136  -0.000005   0.000025
    13  O    0.000002  -0.000030   0.012529   0.003756   0.001542   0.006831
    14  H    0.000309   0.000001   0.000631  -0.000003  -0.000000  -0.000018
    15  H   -0.000197   0.000028  -0.000085   0.000000  -0.000000   0.000001
    16  H   -0.000093  -0.000001  -0.000033  -0.000000  -0.000000   0.000001
    17  H    0.000013   0.000017   0.002253  -0.000015   0.000002   0.000001
    18  H    0.000743   0.000009   0.000135  -0.000002  -0.000003   0.000002
    19  H    0.505206  -0.000985  -0.000144   0.000015   0.000019  -0.000021
    20  H   -0.000985   0.508855  -0.000123   0.000042   0.000600   0.000550
    21  H   -0.000144  -0.000123   0.436582   0.001397  -0.000015  -0.000012
    22  H    0.000015   0.000042   0.001397   0.513895  -0.027970  -0.017853
    23  H    0.000019   0.000600  -0.000015  -0.027970   0.584458  -0.029153
    24  H   -0.000021   0.000550  -0.000012  -0.017853  -0.029153   0.478723
    25  H   -0.000000  -0.000000   0.000015  -0.000008  -0.000000  -0.000031
    26  H    0.000000  -0.000000  -0.000049  -0.000006   0.000000   0.000112
    27  H   -0.000000   0.000000  -0.000048  -0.000002  -0.000000   0.000001
              25         26         27
     1  C    0.000002   0.000006   0.000019
     2  C    0.000001  -0.000005   0.000004
     3  N    0.000003   0.000004  -0.000008
     4  C   -0.000002  -0.000002  -0.000010
     5  C   -0.000002  -0.000008  -0.000000
     6  N    0.000004  -0.000008   0.000005
     7  C   -0.000001   0.000030   0.000047
     8  C   -0.000001   0.000005  -0.000007
     9  C    0.391848   0.391408   0.391911
    10  S   -0.016311  -0.017523  -0.017720
    11  O    0.002312   0.000016  -0.000243
    12  O   -0.000575   0.002423  -0.000571
    13  O   -0.001240  -0.001221   0.002376
    14  H   -0.000024  -0.000028   0.000520
    15  H   -0.000000  -0.000001  -0.000008
    16  H   -0.000001   0.000001  -0.000003
    17  H   -0.000015  -0.000009  -0.000011
    18  H    0.000000  -0.000000   0.000001
    19  H   -0.000000   0.000000  -0.000000
    20  H   -0.000000  -0.000000   0.000000
    21  H    0.000015  -0.000049  -0.000048
    22  H   -0.000008  -0.000006  -0.000002
    23  H   -0.000000   0.000000  -0.000000
    24  H   -0.000031   0.000112   0.000001
    25  H    0.549225  -0.024223  -0.024422
    26  H   -0.024223   0.554218  -0.025066
    27  H   -0.024422  -0.025066   0.553933
 Mulliken charges:
               1
     1  C   -0.288834
     2  C   -0.102781
     3  N   -0.282258
     4  C    0.028533
     5  C    0.039175
     6  N   -0.287775
     7  C    0.268788
     8  C   -0.143265
     9  C   -0.283702
    10  S    0.719482
    11  O   -0.525392
    12  O   -0.534956
    13  O   -0.523147
    14  H    0.173921
    15  H    0.085937
    16  H    0.109710
    17  H    0.158763
    18  H    0.128156
    19  H    0.135544
    20  H    0.131725
    21  H    0.192607
    22  H    0.141919
    23  H    0.112403
    24  H    0.182770
    25  H    0.123446
    26  H    0.119924
    27  H    0.119305
 Sum of Mulliken charges =  -0.00000
 Mulliken charges with hydrogens summed into heavy atoms:
               1
     1  C    0.080735
     2  C    0.184138
     3  N   -0.282258
     4  C    0.164077
     5  C    0.170899
     6  N   -0.287775
     7  C    0.461395
     8  C    0.293828
     9  C    0.078973
    10  S    0.719482
    11  O   -0.525392
    12  O   -0.534956
    13  O   -0.523147
 Electronic spatial extent (au):  <R**2>=           2506.7216
 Charge=             -0.0000 electrons
 Dipole moment (field-independent basis, Debye):
    X=             -6.6007    Y=             -1.0281    Z=              0.2164  Tot=              6.6838
 Quadrupole moment (field-independent basis, Debye-Ang):
   XX=            -76.1476   YY=            -76.3890   ZZ=            -86.6765
   XY=              2.0614   XZ=              1.0739   YZ=             -1.1634
 Traceless Quadrupole moment (field-independent basis, Debye-Ang):
   XX=              3.5901   YY=              3.3487   ZZ=             -6.9388
   XY=              2.0614   XZ=              1.0739   YZ=             -1.1634
 Octapole moment (field-independent basis, Debye-Ang**2):
  XXX=              9.8752  YYY=            -19.1164  ZZZ=             -7.9638  XYY=            -20.7397
  XXY=              8.0722  XXZ=             22.9065  XZZ=             -8.2378  YZZ=             -4.8146
  YYZ=              4.5175  XYZ=              4.9910
 Hexadecapole moment (field-independent basis, Debye-Ang**3):
 XXXX=          -1661.7821 YYYY=          -1121.7986 ZZZZ=           -346.7774 XXXY=             -1.0906
 XXXZ=            -28.9303 YYYX=             24.4834 YYYZ=            -14.8002 ZZZX=             -9.0529
 ZZZY=             -3.1946 XXYY=           -484.6762 XXZZ=           -335.3366 YYZZ=           -250.9957
 XXYZ=            -14.2967 YYXZ=              4.1306 ZZXY=              0.2929
 N-N= 1.071034633843D+03 E-N=-4.516943343659D+03  KE= 1.006298420940D+03
 Calling FoFJK, ICntrl=      2127 FMM=F ISym2X=0 I1Cent= 0 IOpClX= 0 NMat=1 NMatS=1 NMatT=0.
 ***** Axes restored to original set *****
 -------------------------------------------------------------------
 Center     Atomic                   Forces (Hartrees/Bohr)
 Number     Number              X              Y              Z
 -------------------------------------------------------------------
      1        6           0.001857634   -0.001594503    0.001128159
      2        6           0.001610440   -0.008363659    0.001888219
      3        7          -0.001740977   -0.003138714    0.007602432
      4        6          -0.005425258    0.002538303   -0.006275878
      5        6          -0.005781090   -0.001780549   -0.005366218
      6        7          -0.000059813    0.007819682    0.004535509
      7        6          -0.005154564    0.001439792    0.004228765
      8        6           0.003702001    0.007796679   -0.001876755
      9        6          -0.000003988   -0.000325489   -0.000232253
     10       16           0.009328321    0.000494986   -0.000204784
     11        8          -0.001748362   -0.000164390   -0.006892215
     12        8           0.001069712   -0.004184811    0.004900549
     13        8           0.002908012    0.002633606    0.002748134
     14        1          -0.001117509   -0.000797464    0.000328254
     15        1          -0.001359975   -0.002159012   -0.001877744
     16        1          -0.000236636   -0.002562356   -0.000517914
     17        1          -0.002159082    0.000277374   -0.002644190
     18        1           0.000470918    0.001330177    0.000821321
     19        1           0.000621018    0.000360495   -0.000145336
     20        1           0.000336131   -0.000310124   -0.000067147
     21        1          -0.000657544   -0.000334709   -0.002252261
     22        1           0.000348349    0.001374941   -0.002272550
     23        1          -0.002316857   -0.000114349    0.001101445
     24        1           0.000044787    0.000962740    0.003343873
     25        1           0.002443638   -0.000229242    0.001586984
     26        1           0.001693181    0.001459694   -0.002022529
     27        1           0.001327512   -0.002429098   -0.001565869
 -------------------------------------------------------------------
 Cartesian Forces:  Max     0.009328321 RMS     0.003138657

 GradGradGradGradGradGradGradGradGradGradGradGradGradGradGradGradGradGrad
 Berny optimization.
 FormGI is forming the generalized inverse of G from B-inverse, IUseBI=4.
 Internal  Forces:  Max     0.012522904 RMS     0.003014117
 Search for a local minimum.
 Step number   1 out of a maximum of  162
 All quantities printed in internal units (Hartrees-Bohrs-Radians)
 Mixed Optimization -- RFO/linear search
 Second derivative matrix not updated -- first step.
 ITU=  0
     Eigenvalues ---    0.00580   0.00725   0.01006   0.01421   0.01645
     Eigenvalues ---    0.01755   0.01967   0.02108   0.02307   0.02366
     Eigenvalues ---    0.02473   0.02524   0.03007   0.03113   0.03511
     Eigenvalues ---    0.03933   0.04164   0.04298   0.05069   0.05319
     Eigenvalues ---    0.05530   0.06219   0.06229   0.06713   0.07159
     Eigenvalues ---    0.07541   0.07664   0.07708   0.07912   0.08673
     Eigenvalues ---    0.09054   0.09170   0.09565   0.11144   0.12899
     Eigenvalues ---    0.13827   0.14851   0.16000   0.16000   0.16000
     Eigenvalues ---    0.16000   0.16000   0.16000   0.16000   0.16000
     Eigenvalues ---    0.17553   0.22776   0.22840   0.24311   0.26470
     Eigenvalues ---    0.27405   0.29326   0.31608   0.33972   0.34279
     Eigenvalues ---    0.34583   0.34674   0.34854   0.34897   0.34929
     Eigenvalues ---    0.35106   0.35367   0.35368   0.35379   0.36505
     Eigenvalues ---    0.36525   0.38003   0.44321   0.46403   0.51499
     Eigenvalues ---    0.53539   0.57775   0.63598   0.76674   0.78610
 RFO step:  Lambda=-1.30980469D-02 EMin= 5.79763121D-03
 Linear search not attempted -- first point.
 Iteration  1 RMS(Cart)=  0.16207537 RMS(Int)=  0.00417056
 Iteration  2 RMS(Cart)=  0.00662649 RMS(Int)=  0.00053471
 Iteration  3 RMS(Cart)=  0.00003611 RMS(Int)=  0.00053454
 Iteration  4 RMS(Cart)=  0.00000001 RMS(Int)=  0.00053454
 Variable       Old X    -DE/DX   Delta X   Delta X   Delta X     New X
                                 (Linear)    (Quad)   (Total)
    R1        2.88032   0.00415   0.00000   0.01511   0.01526   2.89558
    R2        2.05808   0.00452   0.00000   0.00373   0.00289   2.06097
    R3        2.05912   0.00243   0.00000   0.00672   0.00672   2.06585
    R4        2.05790   0.00215   0.00000   0.00594   0.00594   2.06384
    R5        2.75988   0.01011   0.00000   0.03218   0.03335   2.79323
    R6        2.06398  -0.00239   0.00000  -0.00882  -0.00819   2.05579
    R7        2.06861  -0.00066   0.00000  -0.00186  -0.00186   2.06675
    R8        2.58752   0.00882   0.00000   0.01645   0.01648   2.60400
    R9        2.51190   0.00664   0.00000   0.01813   0.01870   2.53059
   R10        2.56687   0.00204   0.00000   0.00247   0.00272   2.56959
   R11        2.03268  -0.00053   0.00000  -0.00140  -0.00140   2.03129
   R12        2.58536   0.00885   0.00000   0.01643   0.01655   2.60191
   R13        2.03298  -0.00028   0.00000  -0.00075  -0.00075   2.03224
   R14        2.51108   0.01252   0.00000   0.02140   0.02125   2.53233
   R15        2.74361   0.00959   0.00000   0.02440   0.02440   2.76801
   R16        2.03369   0.00403   0.00000   0.01640   0.01608   2.04978
   R17        2.05503  -0.00181   0.00000  -0.00496  -0.00496   2.05007
   R18        2.05843   0.00117   0.00000   0.00323   0.00323   2.06165
   R19        2.06208  -0.00226   0.00000  -0.00628  -0.00628   2.05580
   R20        3.37158   0.00606   0.00000   0.02111   0.02111   3.39270
   R21        2.05065   0.00272   0.00000   0.00742   0.00742   2.05807
   R22        2.05082   0.00279   0.00000   0.00762   0.00762   2.05843
   R23        2.05083   0.00289   0.00000   0.00787   0.00787   2.05870
   R24        2.77369   0.00723   0.00000   0.00839   0.00829   2.78198
   R25        2.78038   0.00272   0.00000   0.00810   0.00724   2.78761
   R26        2.77941   0.00457   0.00000   0.00701   0.00582   2.78522
   R27        4.52929   0.00409   0.00000   0.03305   0.03237   4.56166
   R28        4.68269   0.00248   0.00000   0.02441   0.02413   4.70683
   R29        4.58095   0.00001   0.00000  -0.00352  -0.00361   4.57734
   R30        4.46444   0.00755   0.00000   0.15598   0.15615   4.62059
   R31        4.57804   0.00643   0.00000   0.16109   0.16220   4.74024
    A1        1.90900  -0.00047   0.00000   0.00972   0.00942   1.91842
    A2        1.93657   0.00047   0.00000   0.01067   0.01041   1.94699
    A3        1.90317   0.00084   0.00000  -0.00382  -0.00358   1.89958
    A4        1.90501   0.00152   0.00000   0.01028   0.01003   1.91504
    A5        1.90561  -0.00121   0.00000  -0.01160  -0.01140   1.89421
    A6        1.90424  -0.00118   0.00000  -0.01570  -0.01567   1.88857
    A7        1.91103   0.00588   0.00000   0.05869   0.05881   1.96984
    A8        1.92168  -0.00243   0.00000  -0.00448  -0.00457   1.91711
    A9        1.94908   0.00138   0.00000  -0.00304  -0.00327   1.94581
   A10        1.86712  -0.00088   0.00000  -0.00285  -0.00364   1.86348
   A11        1.89787  -0.00400   0.00000  -0.03117  -0.03128   1.86660
   A12        1.91508  -0.00004   0.00000  -0.01717  -0.01744   1.89764
   A13        2.19125   0.00154   0.00000  -0.00016  -0.00014   2.19111
   A14        2.17158   0.00104   0.00000   0.01789   0.01830   2.18988
   A15        1.90402  -0.00265   0.00000  -0.01252  -0.01335   1.89068
   A16        1.86488   0.00213   0.00000   0.00614   0.00581   1.87069
   A17        2.13488  -0.00087   0.00000  -0.00198  -0.00206   2.13282
   A18        2.28343  -0.00126   0.00000  -0.00422  -0.00429   2.27913
   A19        1.86429   0.00273   0.00000   0.00871   0.00853   1.87282
   A20        2.28700  -0.00142   0.00000  -0.00467  -0.00472   2.28228
   A21        2.13190  -0.00131   0.00000  -0.00401  -0.00405   2.12784
   A22        1.90562  -0.00475   0.00000  -0.01516  -0.01573   1.88989
   A23        2.18901  -0.00284   0.00000  -0.01048  -0.01035   2.17866
   A24        2.17169   0.00775   0.00000   0.03022   0.03036   2.20205
   A25        1.88575   0.00250   0.00000   0.01134   0.01055   1.89630
   A26        2.19981  -0.00615   0.00000  -0.02357  -0.02551   2.17430
   A27        2.19742   0.00365   0.00000   0.01359   0.01400   2.21142
   A28        1.89974   0.00248   0.00000   0.01222   0.01217   1.91191
   A29        1.91416  -0.00326   0.00000  -0.01896  -0.01891   1.89525
   A30        1.88457   0.00306   0.00000   0.01989   0.01986   1.90443
   A31        1.93416  -0.00063   0.00000  -0.00795  -0.00793   1.92623
   A32        1.89888  -0.00255   0.00000  -0.01461  -0.01473   1.88415
   A33        1.93134   0.00105   0.00000   0.01029   0.01036   1.94170
   A34        1.88262   0.00109   0.00000   0.00640   0.00637   1.88899
   A35        1.88357   0.00119   0.00000   0.00682   0.00679   1.89036
   A36        1.88451   0.00155   0.00000   0.00892   0.00888   1.89340
   A37        1.93699  -0.00107   0.00000  -0.00614  -0.00617   1.93082
   A38        1.93683  -0.00122   0.00000  -0.00693  -0.00696   1.92987
   A39        1.93689  -0.00131   0.00000  -0.00775  -0.00778   1.92911
   A40        1.85795  -0.00022   0.00000  -0.00188  -0.00220   1.85576
   A41        1.84771   0.00163   0.00000   0.00380   0.00405   1.85176
   A42        1.84673   0.00132   0.00000   0.01078   0.01135   1.85808
   A43        1.96616  -0.00162   0.00000  -0.00261  -0.00220   1.96397
   A44        1.96758   0.00206   0.00000  -0.00332  -0.00354   1.96404
   A45        1.96568  -0.00281   0.00000  -0.00502  -0.00573   1.95996
   A46        1.64920  -0.00041   0.00000   0.00317   0.00287   1.65207
   A47        1.59068   0.00133   0.00000   0.00644   0.00618   1.59686
   A48        2.25991   0.00231   0.00000   0.02584   0.02499   2.28490
   A49        1.44985   0.00237   0.00000   0.03554   0.03566   1.48551
   A50        1.07358  -0.00053   0.00000  -0.00176  -0.00175   1.07183
   A51        1.67394   0.00075   0.00000   0.00101   0.00090   1.67484
   A52        1.06403   0.00040   0.00000  -0.00492  -0.00566   1.05836
   A53        1.41228   0.00242   0.00000   0.03334   0.03317   1.44545
   A54        2.48690   0.00207   0.00000   0.01741   0.01680   2.50370
   A55        2.03373  -0.00047   0.00000  -0.00364  -0.00344   2.03028
   A56        1.05077   0.00064   0.00000  -0.00475  -0.00464   1.04613
   A57        1.95016   0.00389   0.00000   0.01556   0.01508   1.96525
   A58        1.83857   0.00839   0.00000   0.05849   0.05837   1.89695
   A59        1.79958   0.00571   0.00000   0.05828   0.05985   1.85943
   A60        1.07384  -0.00139   0.00000  -0.04053  -0.03979   1.03404
    D1        0.93603   0.00242   0.00000   0.05019   0.05004   0.98606
    D2       -1.11213   0.00141   0.00000   0.02136   0.02098  -1.09116
    D3        3.03902   0.00222   0.00000   0.04844   0.04835   3.08737
    D4       -1.16655   0.00053   0.00000   0.02432   0.02432  -1.14223
    D5        3.06848  -0.00047   0.00000  -0.00452  -0.00474   3.06374
    D6        0.93644   0.00034   0.00000   0.02256   0.02264   0.95908
    D7        3.01879   0.00116   0.00000   0.03958   0.03961   3.05839
    D8        0.97063   0.00016   0.00000   0.01075   0.01054   0.98117
    D9       -1.16141   0.00097   0.00000   0.03783   0.03792  -1.12349
   D10       -0.70256  -0.00037   0.00000  -0.01016  -0.00989  -0.71245
   D11        0.60329   0.00045   0.00000  -0.01957  -0.01938   0.58391
   D12        1.41918   0.00086   0.00000   0.01545   0.01557   1.43475
   D13        2.72503   0.00169   0.00000   0.00605   0.00608   2.73111
   D14       -2.78381  -0.00039   0.00000  -0.00437  -0.00426  -2.78808
   D15       -1.47796   0.00044   0.00000  -0.01378  -0.01376  -1.49172
   D16        0.99794   0.00281   0.00000   0.04060   0.03987   1.03780
   D17       -1.92910   0.00356   0.00000   0.00816   0.00701  -1.92209
   D18        3.08005   0.00262   0.00000   0.06582   0.06584  -3.13730
   D19        0.15301   0.00337   0.00000   0.03337   0.03298   0.18599
   D20       -1.13597  -0.00003   0.00000   0.02740   0.02770  -1.10827
   D21        2.22018   0.00072   0.00000  -0.00505  -0.00515   2.21503
   D22        0.95908   0.00021   0.00000  -0.00397  -0.00364   0.95544
   D23       -1.11615  -0.00499   0.00000  -0.07020  -0.06983  -1.18598
   D24        3.11110   0.00029   0.00000  -0.02235  -0.02213   3.08897
   D25       -2.96307  -0.00150   0.00000  -0.07804  -0.07776  -3.04083
   D26        0.18013  -0.00046   0.00000  -0.04730  -0.04721   0.13292
   D27       -0.00842  -0.00184   0.00000  -0.04674  -0.04648  -0.05490
   D28        3.13478  -0.00080   0.00000  -0.01600  -0.01593   3.11885
   D29        2.97520   0.00199   0.00000   0.09811   0.09868   3.07387
   D30       -0.14577   0.00165   0.00000   0.02858   0.02928  -0.11649
   D31        0.01796   0.00226   0.00000   0.06956   0.06984   0.08780
   D32       -3.10301   0.00191   0.00000   0.00003   0.00045  -3.10256
   D33       -0.00409   0.00070   0.00000   0.00642   0.00617   0.00207
   D34        3.13589   0.00122   0.00000   0.03172   0.03153  -3.11577
   D35        3.13570  -0.00046   0.00000  -0.02791  -0.02787   3.10783
   D36       -0.00750   0.00006   0.00000  -0.00261  -0.00251  -0.01001
   D37        0.01525   0.00061   0.00000   0.03598   0.03618   0.05143
   D38        2.96692   0.00236   0.00000   0.06492   0.06482   3.03174
   D39       -3.12491   0.00016   0.00000   0.01345   0.01355  -3.11136
   D40       -0.17324   0.00190   0.00000   0.04238   0.04219  -0.13105
   D41       -0.02060  -0.00178   0.00000  -0.06544  -0.06587  -0.08647
   D42        3.10040  -0.00158   0.00000   0.00341   0.00481   3.10521
   D43       -2.97458  -0.00211   0.00000  -0.08867  -0.08946  -3.06404
   D44        0.14642  -0.00191   0.00000  -0.01981  -0.01878   0.12764
   D45        2.87210  -0.00065   0.00000  -0.01839  -0.01860   2.85350
   D46        0.75342   0.00059   0.00000  -0.00456  -0.00473   0.74869
   D47       -1.35244  -0.00062   0.00000  -0.01797  -0.01804  -1.37047
   D48       -0.48737  -0.00019   0.00000   0.00918   0.00927  -0.47810
   D49       -2.60605   0.00105   0.00000   0.02301   0.02313  -2.58292
   D50        1.57128  -0.00016   0.00000   0.00959   0.00982   1.58110
   D51        1.05524  -0.00551   0.00000  -0.08351  -0.08371   0.97153
   D52        2.16630  -0.00483   0.00000  -0.10746  -0.10498   2.06132
   D53       -2.06214  -0.00587   0.00000  -0.16498  -0.16557  -2.22771
   D54       -0.95108  -0.00520   0.00000  -0.18893  -0.18684  -1.13792
   D55        3.13916   0.00136   0.00000   0.00069   0.00051   3.13967
   D56       -1.04797   0.00020   0.00000  -0.00134  -0.00109  -1.04906
   D57        1.04197  -0.00158   0.00000   0.00002  -0.00005   1.04192
   D58        1.04519   0.00135   0.00000   0.00062   0.00044   1.04563
   D59        3.14124   0.00020   0.00000  -0.00142  -0.00116   3.14009
   D60       -1.05199  -0.00159   0.00000  -0.00005  -0.00012  -1.05212
   D61       -1.04972   0.00138   0.00000   0.00102   0.00084  -1.04888
   D62        1.04633   0.00023   0.00000  -0.00102  -0.00076   1.04557
   D63        3.13628  -0.00156   0.00000   0.00035   0.00028   3.13655
   D64        1.81104   0.00093   0.00000   0.01113   0.01142   1.82246
   D65       -0.20662  -0.00005   0.00000   0.00907   0.00903  -0.19759
   D66       -2.45492   0.00348   0.00000   0.02123   0.02190  -2.43302
   D67       -1.82463   0.00026   0.00000  -0.00701  -0.00698  -1.83161
   D68       -2.74975   0.00104   0.00000   0.00435   0.00448  -2.74527
   D69        2.78627  -0.00035   0.00000  -0.00753  -0.00770   2.77856
   D70        0.19918   0.00014   0.00000  -0.00834  -0.00833   0.19085
   D71       -0.72594   0.00091   0.00000   0.00302   0.00313  -0.72281
   D72       -1.47311  -0.00048   0.00000  -0.00885  -0.00905  -1.48216
   D73        2.44846  -0.00086   0.00000  -0.01961  -0.02005   2.42842
   D74        1.52334  -0.00008   0.00000  -0.00825  -0.00858   1.51476
   D75        0.77617  -0.00148   0.00000  -0.02013  -0.02077   0.75540
   D76       -2.76775  -0.00007   0.00000   0.01217   0.01270  -2.75505
   D77        1.49149  -0.00167   0.00000   0.00965   0.01033   1.50182
   D78       -0.75706   0.00124   0.00000   0.02056   0.02135  -0.73571
   D79        1.80005  -0.00079   0.00000  -0.02535  -0.02508   1.77497
   D80        0.12990   0.00013   0.00000  -0.00546  -0.00550   0.12440
   D81       -2.52687  -0.00296   0.00000  -0.01529  -0.01461  -2.54148
   D82       -0.12921  -0.00035   0.00000   0.00543   0.00543  -0.12378
   D83       -0.16258  -0.00079   0.00000   0.01313   0.01304  -0.14954
   D84        2.23507   0.00182   0.00000   0.03386   0.03309   2.26816
   D85       -1.07562  -0.00044   0.00000   0.02110   0.02188  -1.05374
   D86        1.32204   0.00217   0.00000   0.04182   0.04193   1.36397
   D87        0.63749  -0.00191   0.00000  -0.02469  -0.02490   0.61259
   D88       -0.50230  -0.00120   0.00000  -0.00788  -0.00804  -0.51034
   D89        1.51881  -0.00001   0.00000  -0.00058  -0.00022   1.51859
   D90        1.22684   0.00167   0.00000   0.04335   0.04432   1.27116
   D91       -0.46297  -0.00033   0.00000   0.01452   0.01438  -0.44859
   D92       -0.35151   0.00017   0.00000   0.03330   0.03451  -0.31701
   D93       -2.04132  -0.00183   0.00000   0.00448   0.00457  -2.03676
   D94       -1.27138   0.00120   0.00000   0.03905   0.04061  -1.23077
   D95       -2.96120  -0.00080   0.00000   0.01023   0.01068  -2.95052
   D96       -1.28879  -0.00657   0.00000  -0.04682  -0.04482  -1.33361
   D97        0.46579  -0.00005   0.00000  -0.01494  -0.01474   0.45105
         Item               Value     Threshold  Converged?
 Maximum Force            0.012523     0.000450     NO 
 RMS     Force            0.003014     0.000300     NO 
 Maximum Displacement     0.730127     0.001800     NO 
 RMS     Displacement     0.163387     0.001200     NO 
 Predicted change in Energy=-8.129377D-03
 GradGradGradGradGradGradGradGradGradGradGradGradGradGradGradGradGradGrad

                          Input orientation:                          
 ---------------------------------------------------------------------
 Center     Atomic      Atomic             Coordinates (Angstroms)
 Number     Number       Type             X           Y           Z
 ---------------------------------------------------------------------
      1          6           0       -0.910000   -2.740696   -0.419316
      2          6           0       -1.472651   -1.895904    0.728559
      3          7           0       -1.698172   -0.485836    0.346891
      4          6           0       -2.528197   -0.052580   -0.664135
      5          6           0       -2.356969    1.291705   -0.776131
      6          7           0       -1.423407    1.665427    0.164385
      7          6           0       -0.989745    0.561454    0.788018
      8          6           0       -0.854709    3.009384    0.290536
      9          6           0        3.552833   -0.574127   -0.538630
     10         16           0        1.869855   -0.143037   -0.085878
     11          8           0        1.080196   -0.198748   -1.327084
     12          8           0        1.441222   -1.150849    0.902368
     13          8           0        1.926071    1.213648    0.487325
     14          1           0        0.015590   -2.297102   -0.788045
     15          1           0       -1.627203   -2.832781   -1.239209
     16          1           0       -0.689547   -3.742586   -0.044641
     17          1           0       -0.770627   -1.887721    1.559565
     18          1           0       -2.430633   -2.287639    1.082039
     19          1           0       -3.183794   -0.720481   -1.192842
     20          1           0       -2.829020    2.008094   -1.424567
     21          1           0       -0.229334    0.509159    1.559771
     22          1           0       -0.382439    3.113941    1.261582
     23          1           0       -1.658127    3.738918    0.178575
     24          1           0       -0.089658    3.145400   -0.470836
     25          1           0        4.166749   -0.540471    0.360302
     26          1           0        3.906057    0.149814   -1.271887
     27          1           0        3.550100   -1.577484   -0.963004
 ---------------------------------------------------------------------
                    Distance matrix (angstroms):
                    1          2          3          4          5
     1  C    0.000000
     2  C    1.532276   0.000000
     3  N    2.508522   1.478114   0.000000
     4  C    3.147136   2.540003   1.377979   0.000000
     5  C    4.298988   3.634138   2.203371   1.359766   0.000000
     6  N    4.474172   3.606078   2.176405   2.204213   1.376872
     7  C    3.516847   2.505063   1.339133   2.202866   2.202074
     8  C    5.793994   4.963423   3.595993   3.617676   2.518925
     9  C    4.962372   5.348678   5.325879   6.104644   6.201894
    10  S    3.819242   3.861114   3.610487   4.436826   4.516744
    11  O    3.353568   3.690939   3.256369   3.671697   3.786700
    12  O    3.130928   3.012636   3.256776   4.406405   4.817643
    13  O    4.949963   4.612897   4.005384   4.771759   4.466188
    14  H    1.090621   2.162386   2.739662   3.394714   4.302175
    15  H    1.093199   2.184888   2.833532   2.978593   4.214070
    16  H    1.092137   2.149727   3.431770   4.168998   5.353453
    17  H    2.159389   1.087877   2.072727   3.376630   4.252141
    18  H    2.184411   1.093678   2.079287   2.837980   4.033599
    19  H    3.138431   2.828677   2.152420   1.074910   2.214990
    20  H    5.219595   4.660138   3.261375   2.217009   1.075414
    21  H    3.865443   2.832151   2.149088   3.247473   3.255096
    22  H    6.113961   5.154729   3.940331   4.282467   3.372179
    23  H    6.550005   5.664636   4.228295   3.980281   2.718215
    24  H    5.943210   5.363392   4.054858   4.026278   2.944502
    25  H    5.587680   5.811682   5.865191   6.790420   6.870753
    26  H    5.681226   6.092393   5.867868   6.466061   6.385545
    27  H    4.641244   5.309502   5.518322   6.273782   6.569675
                    6          7          8          9         10
     6  N    0.000000
     7  C    1.340051   0.000000
     8  C    1.464770   2.501616   0.000000
     9  C    5.502072   4.866677   5.740687   0.000000
    10  S    3.765468   3.072021   4.183622   1.795337   0.000000
    11  O    3.459430   3.055522   4.080767   2.622309   1.472161
    12  O    4.084376   2.975677   4.790947   2.620684   1.475141
    13  O    3.395202   3.002957   3.316041   2.625848   1.473877
    14  H    4.321976   3.415555   5.484483   3.942453   2.927684
    15  H    4.716512   4.004601   6.088330   5.694304   4.560078
    16  H    5.461579   4.394109   6.762301   5.317983   4.416898
    17  H    3.872662   2.577160   5.059559   4.981993   3.567009
    18  H    4.181306   3.206234   5.582872   6.431528   4.945457
    19  H    3.260918   3.221958   4.640791   6.769900   5.205591
    20  H    2.148938   3.220440   2.800368   6.941238   5.338434
    21  H    2.170223   1.084695   2.872834   4.458876   2.745927
    22  H    2.094194   2.666135   1.084851   5.685857   4.182868
    23  H    2.086782   3.303700   1.090979   6.802267   5.252253
    24  H    2.091103   3.011918   1.087884   5.206459   3.847298
    25  H    6.012837   5.290237   6.149909   1.089084   2.373342
    26  H    5.723910   5.327432   5.769159   1.089277   2.374552
    27  H    6.043447   5.315197   6.481748   1.089416   2.377017
                   11         12         13         14         15
    11  O    0.000000
    12  O    2.450977   0.000000
    13  O    2.449989   2.449118   0.000000
    14  H    2.413925   2.490747   4.195458   0.000000
    15  H    3.778341   4.102497   5.655109   1.785853   0.000000
    16  H    4.163584   3.486274   5.629271   1.771804   1.770293
    17  H    3.822422   2.422223   4.247395   2.509383   3.075711
    18  H    4.742705   4.039286   5.620815   3.079174   2.516122
    19  H    4.297887   5.095674   5.716164   3.589659   2.624297
    20  H    4.490169   5.799009   5.186266   5.199200   4.991272
    21  H    3.248066   2.445110   2.508428   3.667060   4.577870
    22  H    4.451337   4.652226   3.088658   5.799896   6.570152
    23  H    5.026990   5.834351   4.395314   6.337919   6.722968
    24  H    3.644866   4.763091   2.951763   5.452754   6.220378
    25  H    3.534241   2.845153   2.848457   4.651513   6.432962
    26  H    2.847812   3.534759   2.854279   4.621389   6.286009
    27  H    2.851998   2.847630   3.539964   3.611263   5.334466
                   16         17         18         19         20
    16  H    0.000000
    17  H    2.453686   0.000000
    18  H    2.533310   1.773016   0.000000
    19  H    4.083228   3.842079   2.863271   0.000000
    20  H    6.289027   5.321597   4.989499   2.761283   0.000000
    21  H    4.567633   2.457241   3.591104   4.221105   4.232192
[...]
 .00007617,0.00001007,-0.00010042,0.00000081,0.00002429,0.00000460,-0.0
 0016609,0.00009879,0.00004110,-0.00003181,-0.00004145,-0.00000466,-0.0
 0001012,-0.00001526,-0.00001147,-0.00002310,0.00000352,-0.00003085,0.0
 0000159,-0.00000085,-0.00002845,-0.00001027,-0.00050021,0.00001767,0.0
 0000366,-0.00002260,0.00000565,-0.00019194,-0.00002998,-0.00054031,-0.
 13151962,0.21950058,-0.00015922,0.00020582,-0.00017901,-0.00039412,-0.
 00005831,0.00122659,-0.00129204,0.00028021,0.00456241,0.00141213,-0.00
 146033,0.00124717,-0.08053311,0.09121843,-0.07907468,-0.00404674,0.009
 11943,-0.00661544,-0.00308440,-0.00172436,0.00194524,0.00133240,-0.000
 31602,-0.00079179,-0.00001116,-0.00002844,0.00003213,0.00007422,0.0001
 6566,-0.00016138,-0.00001165,-0.00000822,-0.00002542,-0.00027069,0.000
 08872,0.00002663,0.00005421,-0.00011423,-0.00003663,-0.00000134,-0.000
 01122,-0.00000236,0.00003784,-0.00004556,-0.00001347,0.00001626,0.0000
 2681,0.00006262,-0.00001991,-0.00012973,-0.00001263,0.00011946,-0.0001
 2278,0.00006349,0.00108658,-0.00009231,-0.00226929,0.08635924,-0.09746
 736,0.07865131,0.00005107,0.00042688,-0.00046797,0.00023490,-0.0015814
 4,0.00119657,-0.00755774,0.00206603,-0.00419641,0.00293939,-0.00240225
 ,0.00087475,0.00355487,-0.00072820,0.00105246,0.00451060,0.00063171,0.
 00199770,-0.28009017,0.02558238,-0.11610533,0.00058692,0.00202430,0.00
 054582,0.00042574,0.00096854,-0.00174595,-0.01146795,-0.00563040,0.024
 18687,-0.00059548,-0.00075723,-0.00508188,0.00472118,-0.00268235,-0.01
 087240,-0.00250390,0.00420982,-0.00275297,0.00057557,0.00021799,0.0001
 7699,-0.00018576,-0.00005692,0.00005619,-0.00000641,0.00023983,0.00022
 653,0.00113247,-0.00000991,-0.00019218,-0.00015546,0.00034781,-0.00006
 191,0.00040178,-0.00006589,-0.00035798,0.00090353,0.00019571,-0.000151
 76,0.28113901,0.00011193,-0.00039336,0.00021508,-0.00105593,0.00280446
 ,-0.00117607,-0.02532080,0.00754029,-0.01189706,-0.00304045,-0.0044150
 9,-0.00073701,-0.00078411,-0.00454948,0.00099501,0.02360977,0.00144791
 ,0.01007280,0.02929884,-0.06386129,0.01889058,0.00074177,0.00105635,-0
 .00050733,-0.00038056,-0.00107065,0.00159270,0.00313823,0.00995786,-0.
 01147557,0.00009738,-0.00063644,0.00227461,-0.00427933,-0.00287540,0.0
 0635301,0.00131878,-0.00444370,0.00040134,-0.00021051,-0.00005742,-0.0
 0012988,0.00011370,0.00010591,0.00011080,0.00000943,-0.00011998,-0.000
 13043,-0.00062967,-0.00107020,0.00032873,0.00030632,-0.00016482,0.0001
 2318,-0.00099919,0.00092767,-0.00056554,0.00067194,0.00058214,0.000617
 29,-0.02182949,0.05967446,-0.00027674,-0.00015312,-0.00007312,0.001574
 42,-0.00042754,-0.00180380,-0.00355068,0.00129562,0.00098952,0.0002777
 1,-0.00160161,0.00373934,0.00064950,0.00267373,0.00322041,-0.00583531,
 -0.00015572,-0.00084656,-0.10983851,0.01653821,-0.08550149,0.00059525,
 -0.00047949,-0.00185268,0.00001935,0.00046441,-0.00044127,0.00644757,-
 0.00551173,0.00266130,-0.00098838,0.00042647,-0.00132453,0.00113625,0.
 00090692,-0.00635645,-0.00106723,0.00104294,-0.00037771,0.00003683,-0.
 00010556,-0.00002624,0.00002019,-0.00003853,-0.00007354,0.00002544,0.0
 0004463,-0.00004589,-0.00002518,0.00018244,0.00027109,0.00011328,0.000
 36105,0.00008117,-0.00068311,0.00017157,0.00133608,-0.00084040,0.00016
 914,0.00137812,0.11188883,-0.01569608,0.08484530,0.00000960,0.00001605
 ,0.00003539,-0.00017221,0.00010672,0.00012312,-0.00073794,-0.00088889,
 -0.00018037,-0.00023928,-0.00036142,0.00065949,0.00083959,-0.00110154,
 -0.00039540,0.00131855,-0.01433634,-0.01682422,-0.00018620,0.00176607,
 -0.00091427,-0.06348059,0.03060716,0.05451693,-0.00004024,0.00023416,-
 0.00004589,-0.00009000,-0.00108524,0.00049593,0.00004331,0.00027915,0.
 00000828,0.00019864,0.00018224,-0.00039316,-0.00080677,0.00145334,-0.0
 0029974,-0.00002866,-0.00001363,-0.00000692,-0.00000268,0.00000190,-0.
 00000747,-0.00000013,-0.00001263,-0.00001219,-0.00001967,-0.00001705,0
 .00001320,0.00005078,-0.00009384,0.00001594,-0.00011908,-0.00005555,0.
 00021597,-0.00000959,-0.00003374,-0.00030198,-0.00012432,0.00009976,0.
 00003731,0.06168240,0.00001711,0.00002162,0.00003307,-0.00039036,0.000
 28282,0.00030371,-0.00225308,-0.00136440,0.00000749,0.00003111,-0.0020
 0362,0.00063986,0.00309553,0.00019051,0.00010354,-0.00006566,-0.026203
 72,-0.02361855,-0.00116291,0.00218496,-0.00249510,0.02784814,-0.102245
 01,-0.10117707,0.00001464,0.00001283,-0.00001321,-0.00025729,-0.000369
 27,0.00008596,0.00012948,0.00011353,0.00002749,0.00030670,0.00005881,-
 0.00003979,0.00008375,0.00027783,0.00002744,-0.00003710,0.00000042,-0.
 00000237,0.00000584,0.00002053,0.00000840,0.00000420,-0.00003363,-0.00
 000593,-0.00000778,-0.00004617,-0.00001200,0.00007165,-0.00019966,0.00
 001202,-0.00009731,-0.00005157,0.00028297,-0.00007599,0.00004080,-0.00
 020273,-0.00007105,-0.00012158,-0.00048112,-0.02420416,0.12043376,0.00
 001745,-0.00004546,0.00004270,0.00002308,0.00002923,-0.00015351,-0.000
 03431,-0.00015978,-0.00021015,0.00000703,0.00005391,0.00014742,0.00018
 791,-0.00040861,0.00029007,-0.00309199,0.00020184,0.00601940,-0.000292
 20,0.00119497,0.00020930,0.05056450,-0.10637056,-0.24625408,0.00002469
 ,-0.00003935,0.00000397,-0.00012196,0.00031855,-0.00009264,0.00003689,
 -0.00008022,0.00000805,0.00002751,-0.00007271,0.00007003,0.00020648,-0
 .00032337,0.00007094,0.00000037,0.00000856,-0.00000097,-0.00000408,0.0
 0000636,-0.00000185,0.00000462,-0.00001541,-0.00001415,0.00000420,-0.0
 0000144,-0.00000166,0.00000137,0.00000528,0.00000546,0.00002149,-0.000
 02846,-0.00003797,0.00009139,-0.00011713,-0.00026191,0.00001386,-0.000
 00275,-0.00010179,-0.05463572,0.11687673,0.26018337,0.00004786,-0.0001
 3499,0.00006688,-0.00008366,0.00008506,-0.00040718,-0.00055788,-0.0016
 0136,-0.00036918,0.00051811,-0.00048914,0.00064479,0.00139980,-0.00001
 610,0.00086081,0.00415902,-0.01578245,0.01583078,-0.00220584,0.0000222
 6,-0.00004832,-0.07605515,0.04920885,-0.07184380,-0.00001858,0.0000953
 3,-0.00004250,0.00002508,-0.00077034,-0.00010049,0.00010697,0.00022206
 ,0.00020219,0.00001012,0.00013092,0.00008160,-0.00063300,0.00079282,0.
 00078563,-0.00002192,0.00000066,-0.00000686,0.00000070,0.00000750,0.00
 000164,0.00001135,-0.00002562,-0.00004002,-0.00001440,0.00000837,0.000
 00562,-0.00000376,-0.00000908,0.00000469,0.00003065,0.00005235,-0.0001
 0119,-0.00011688,-0.00001771,-0.00018921,-0.00007381,-0.00024559,0.000
 02148,0.00214897,-0.00428745,0.00677081,0.07556663,0.00003680,-0.00018
 431,0.00012992,-0.00027913,0.00022696,-0.00046703,-0.00012767,-0.00215
 184,-0.00020773,0.00056311,-0.00074614,0.00018563,0.00191939,0.0018766
 1,0.00052564,0.00954856,-0.02756442,0.02483439,-0.00481930,-0.00011516
 ,0.00008195,0.04048834,-0.12167658,0.10759754,0.00000942,0.00005572,-0
 .00002611,-0.00012359,-0.00052847,0.00037413,0.00002585,0.00012046,-0.
 00008952,0.00031312,0.00007140,-0.00023715,-0.00000076,0.00039398,-0.0
 0028813,-0.00002251,-0.00001153,0.00000397,-0.00001375,0.00000786,-0.0
 0000170,0.00002092,-0.00003936,-0.00007349,-0.00002721,0.00001528,0.00
 000564,0.00000092,-0.00008494,0.00000550,-0.00000335,0.00004538,-0.000
 08403,-0.00070619,0.00016932,0.00003136,-0.00033950,0.00011420,0.00003
 913,-0.00518605,0.01072292,-0.01175841,-0.04287365,0.14149245,0.000002
 05,-0.00002747,0.00001451,0.00001473,-0.00003446,-0.00008994,0.0003780
 5,-0.00055629,0.00049498,0.00020118,0.00052518,0.00007544,-0.00069560,
 -0.00053660,0.00067802,0.00127755,-0.00247853,0.00348521,-0.00017468,-
 0.00135435,0.00013482,-0.06670025,0.11722764,-0.22006477,-0.00000975,0
 .00002818,0.00000234,0.00005383,-0.00017312,-0.00006715,-0.00000409,0.
 00004824,0.00003281,-0.00004573,0.00006077,0.00003653,-0.00004900,0.00
 014816,-0.00004714,-0.00000535,-0.00000689,-0.00000065,0.00000020,-0.0
 0000240,-0.00000090,-0.00000228,-0.00000201,-0.00001393,-0.00000099,-0
 .00001171,0.00000017,-0.00000275,0.00000003,0.00000283,0.00002623,-0.0
 0001716,-0.00008886,0.00042121,0.00016864,0.00015286,0.00007000,-0.000
 08552,-0.00003580,-0.00930386,0.01449760,-0.01943491,0.07407280,-0.124
 46391,0.23139893,-0.00001005,0.00005412,-0.00006220,0.00019144,-0.0003
 3227,0.00003516,0.00023827,0.00077744,-0.00033993,-0.00032513,0.000064
 76,-0.00024211,0.00030778,-0.00096459,0.00161468,-0.01814412,-0.002928
 79,-0.00106238,0.00049884,0.00060186,-0.00011401,-0.30550440,0.0481302
 0,0.02002092,0.00001331,-0.00059527,0.00019708,-0.00025280,0.00624917,
 -0.00175465,-0.00034079,-0.00173475,-0.00058773,-0.00077071,-0.0010627
 1,0.00123221,-0.00187450,-0.00302561,0.00131281,0.00013748,0.00005064,
 0.00003738,-0.00004221,-0.00001644,0.00000383,0.00000307,0.00003085,0.
 00002690,0.00009259,0.00004163,-0.00004945,-0.00005077,0.00009091,-0.0
 0000285,0.00008916,-0.00008329,-0.00005601,-0.00003485,-0.00000727,-0.
 00002078,0.00104514,-0.00035825,0.00027142,-0.00015984,0.00127166,0.00
 015685,-0.00421115,0.00158941,0.00048630,0.32895427,0.00002152,-0.0001
 3450,0.00007499,-0.00002392,0.00040362,-0.00026139,-0.00127605,-0.0006
 4879,-0.00015480,-0.00108002,-0.00134720,-0.00075020,0.00052257,-0.003
 78387,0.00289406,-0.04072566,-0.00172500,-0.00084095,-0.00142569,0.002
 29585,-0.00012763,0.06449669,-0.06168958,-0.00273038,-0.00009868,0.001
 04143,-0.00021645,0.00033072,-0.00726615,0.00130164,0.00029510,0.00155
 422,0.00050573,0.00054935,0.00116374,-0.00102806,-0.00088395,0.0036106
 5,-0.00025113,-0.00014141,-0.00007134,-0.00002925,0.00005526,0.0000326
 2,0.00003194,0.00001963,-0.00004623,-0.00004286,-0.00009492,-0.0000978
 1,0.00006188,0.00003705,-0.00002713,-0.00001140,0.00023268,-0.00047154
 ,-0.00019715,-0.00009138,0.00003458,0.00002986,-0.00083027,-0.00034631
 ,0.00026426,0.01263581,-0.00172554,0.00073053,0.01561628,-0.00221182,-
 0.00295557,-0.04781885,0.07139965,-0.00002369,-0.00001260,0.00000825,-
 0.00001835,0.00010896,0.00001254,0.00046847,0.00010030,-0.00017775,-0.
 00044721,0.00010327,-0.00018146,-0.00068460,-0.00100682,0.00013092,-0.
 00245302,0.00049716,-0.00038018,0.00054942,-0.00000524,0.00096416,0.02
 254408,-0.00334179,-0.05383709,-0.00001462,0.00056727,-0.00001508,-0.0
 0053369,-0.00171788,0.00076817,-0.00001442,0.00025383,-0.00012178,0.00
 041384,0.00042703,-0.00089340,0.00053600,0.00087339,-0.00161211,-0.000
 02931,-0.00003160,0.00000560,0.00000996,0.00000051,-0.00000052,0.00000
 392,-0.00000510,-0.00001377,-0.00003346,-0.00000610,0.00002306,0.00000
 623,-0.00001294,-0.00000632,-0.00000246,-0.00006478,0.00002934,0.00021
 947,0.00006811,0.00009451,-0.00024570,0.00046002,0.00029186,0.02721036
 ,-0.00486157,-0.00048807,-0.02619860,0.00388137,0.00333487,-0.02110321
 ,0.00373451,0.05209458,-0.00000420,-0.00004373,-0.00003498,0.00001056,
 -0.00010253,-0.00009970,0.00000615,0.00008537,0.00004763,0.00007481,-0
 .00001042,0.00004348,-0.00001020,0.00001281,-0.00000485,0.00004051,0.0
 0005167,0.00000143,-0.00002693,-0.00015118,-0.00011021,-0.00005618,-0.
 00003697,-0.00001106,-0.07013933,-0.04790653,-0.06681058,-0.00595389,-
 0.01864985,-0.02554372,-0.00888668,-0.00154334,-0.00274546,0.00174562,
 0.00181691,0.00298454,0.00168203,0.00217256,0.00271924,0.00022741,0.00
 020833,-0.00005609,-0.00005838,-0.00001126,0.00002585,-0.00003422,-0.0
 0002583,0.00003766,-0.00002261,-0.00001049,0.00000097,-0.00001539,0.00
 002997,0.00004001,0.00001215,-0.00000413,-0.00000534,0.00000504,-0.000
 00016,-0.00000162,-0.00008657,0.00001160,-0.00004904,-0.00000778,0.000
 01716,0.00000361,0.00001105,0.00000677,0.00000529,-0.00001604,-0.00000
 323,-0.00001237,0.07411804,0.00001169,0.00000480,-0.00001159,0.0000035
 5,0.00000928,-0.00002552,-0.00001444,-0.00001247,0.00001337,-0.0000018
 8,-0.00000473,-0.00000239,0.00001244,-0.00000485,0.00000874,-0.0000049
 5,-0.00000309,0.00000500,0.00000737,0.00000687,-0.00002614,0.00001343,
 0.00000633,-0.00000100,-0.04762102,-0.13042448,-0.11736476,0.00100879,
 -0.00112530,0.00055664,0.00048300,0.00193058,0.00069811,0.00005157,-0.
 00006171,0.00133049,0.00012780,0.00003592,0.00010266,0.00000824,-0.000
 01512,0.00002636,0.00000028,0.00000410,0.00000216,0.00000501,0.0000012
 7,-0.00000218,-0.00000031,-0.00000104,-0.00000850,-0.00000128,-0.00000
 217,0.00000259,0.00000189,-0.00000098,-0.00000179,0.00000270,0.0000004
 8,-0.00000076,-0.00003638,0.00001530,0.00000032,0.00000014,-0.00000070
 ,0.00000026,0.00000059,-0.00000172,0.00000012,0.00001503,0.00000632,-0
 .00000842,0.05146436,0.13618196,0.00000179,0.00000145,-0.00001690,-0.0
 0000125,-0.00003655,-0.00000995,0.00000073,0.00003149,0.00000250,0.000
 02010,0.00000360,0.00000952,-0.00001641,0.00000489,-0.00001324,0.00001
 070,0.00003132,-0.00000411,-0.00000735,-0.00003384,0.00000031,-0.00002
 735,-0.00002246,0.00000351,-0.06639612,-0.11746249,-0.21121316,0.00077
 604,-0.00170805,-0.00355760,-0.00040352,0.00053879,0.00206921,0.000337
 81,0.00026381,0.00074283,0.00037071,0.00159240,0.00067756,0.00003152,0
 .00001315,-0.00000324,-0.00001679,-0.00000343,0.00000476,-0.00000427,-
 0.00000265,0.00000634,0.00000390,0.00000405,0.00000070,-0.00000608,0.0
 0000795,0.00000935,0.00000288,-0.00000047,-0.00000170,0.00000012,-0.00
 000123,-0.00000156,-0.00000975,-0.00001903,-0.00000207,-0.00000212,0.0
 0000422,0.00000278,-0.00000227,0.00000155,-0.00000263,-0.00002018,-0.0
 0001225,-0.00000459,0.07229064,0.12845211,0.22434742,-0.00001595,0.000
 04760,0.00002453,0.00004866,-0.00002557,0.00013694,0.00002954,0.000028
 74,-0.00003808,-0.00002422,0.00004148,-0.00002482,-0.00012898,0.000044
 00,-0.00008980,-0.00010220,-0.00002042,-0.00010453,-0.00024239,0.00020
 534,0.00010771,-0.00002516,-0.00012694,0.00001835,-0.07947279,-0.03580
 888,0.08635699,-0.00707311,-0.01201271,0.02836030,0.00164475,0.0009971
 9,-0.00326591,-0.00933110,-0.00042635,0.00301322,0.00184740,0.00146642
 ,-0.00298807,-0.00004269,-0.00003842,0.00001872,-0.00000275,-0.0000075
 8,-0.00003266,0.00000755,0.00000007,-0.00000262,0.00015202,0.00012178,
 -0.00007809,-0.00005175,-0.00000477,-0.00004020,-0.00000935,0.00000550
 ,0.00000085,-0.00001854,-0.00000553,-0.00001011,0.00084590,-0.00069383
 ,0.00018891,0.00002351,0.00001474,-0.00000340,-0.00000203,0.00001974,-
 0.00000301,-0.00005484,0.00006233,0.00002851,0.00446107,0.00524020,-0.
 00957748,0.08401848,-0.00000544,-0.00000780,-0.00000306,0.00002389,0.0
 0003367,-0.00000650,-0.00001313,-0.00001522,0.00000230,-0.00001556,0.0
 0000170,-0.00001094,0.00000157,-0.00000372,-0.00000198,-0.00001809,-0.
 00001159,0.00001308,-0.00005220,0.00004352,-0.00003391,0.00000417,0.00
 000902,0.00000595,-0.03539085,-0.08115975,0.08390584,0.00071616,-0.001
 04935,-0.00101452,-0.00002551,-0.00033412,-0.00099268,0.00062986,0.001
 66173,-0.00057793,-0.00002187,-0.00038537,0.00022977,-0.00000256,0.000
 00145,0.00002378,-0.00000359,0.00000274,0.00000008,0.00000269,-0.00000
 018,0.00000321,-0.00000303,-0.00001627,-0.00000277,0.00000790,-0.00000
 567,0.00000067,-0.00000131,0.00000054,-0.00000018,0.00000029,0.0000002
 9,-0.00000056,0.00002602,-0.00002375,0.00004456,-0.00000087,-0.0000006
 4,0.00000135,0.00000505,-0.00000057,-0.00000060,0.00001006,0.00000094,
 -0.00002135,0.00824952,0.00699347,-0.01495681,0.03842207,0.08228274,0.
 00000434,-0.00000115,-0.00000663,-0.00001003,0.00000959,-0.00002405,0.
 00000269,-0.00001152,0.00001204,-0.00000224,-0.00001033,0.00000436,0.0
 0002305,-0.00000062,0.00001875,0.00000290,-0.00001491,0.00000883,0.000
 03242,-0.00000177,-0.00007474,0.00001837,0.00001940,-0.00000767,0.0854
 8210,0.08403826,-0.25109115,-0.00103951,0.00014945,-0.00184918,-0.0002
 2462,0.00012421,0.00076044,-0.00029089,-0.00035346,0.00242364,-0.00024
 347,-0.00117694,0.00069984,0.00000052,-0.00000330,0.00000647,0.0000037
 6,-0.00000121,0.00000510,-0.00000146,-0.00000103,-0.00000136,-0.000010
 51,-0.00000164,0.00001164,0.00000702,-0.00000135,0.00000132,-0.0000000
 1,-0.00000072,0.00000056,0.00000061,0.00000133,0.00000198,-0.00005082,
 0.00001449,0.00002513,-0.00000326,-0.00000182,-0.00000138,0.00000497,-
 0.00000221,0.00000328,0.00000867,0.00000839,-0.00001192,0.00924082,0.0
 0932733,-0.01752059,-0.09317210,-0.09195965,0.26815300,-0.00000790,-0.
 00002294,0.00001272,-0.00004982,0.00016201,-0.00003157,-0.00004282,-0.
 00015535,0.00003438,-0.00008611,-0.00000746,-0.00007657,0.00008873,-0.
 00006198,0.00004103,0.00002785,0.00005395,0.00011018,0.00039023,0.0001
 0161,-0.00006708,-0.00003777,0.00013992,0.00005941,-0.06040414,0.06619
 274,-0.00855124,-0.00384572,0.03122270,-0.00392843,0.00129767,-0.00345
 218,0.00023579,0.00155099,-0.00348895,0.00059546,-0.00869354,0.0041691
 8,-0.00031376,-0.00002013,0.00001799,0.00001386,0.00002906,0.00000040,
 0.00000123,-0.00001910,-0.00003399,-0.00000742,-0.00001737,0.00000489,
 0.00000956,0.00001534,-0.00002912,0.00000057,-0.00000072,0.00000039,-0
 .00000151,0.00000712,-0.00000038,0.00000750,-0.00022049,0.00029825,-0.
 00014916,-0.00009034,-0.00000158,0.00001957,-0.00003826,-0.00001971,-0
 .00001209,0.00022089,-0.00038096,-0.00017556,0.00292398,-0.01077782,0.
 00264400,0.00351895,-0.01254524,0.00021670,0.06350344,0.00000130,0.000
 00987,-0.00000643,0.00001213,-0.00004075,0.00001537,0.00001499,0.00003
 885,-0.00001400,0.00002381,-0.00000035,0.00002250,-0.00002035,0.000020
 95,-0.00000749,-0.00000878,0.00000547,-0.00002577,-0.00005330,-0.00001
 112,-0.00002045,-0.00002874,-0.00001579,0.00000186,0.06544486,-0.30061
 832,0.03239634,-0.00101922,-0.00492465,0.00029310,-0.00031892,0.001412
 35,0.00044225,-0.00030522,0.00132294,-0.00086107,0.00075441,0.00222702
 ,-0.00005142,0.00001143,-0.00001220,0.00000513,0.00000020,-0.00000243,
 -0.00000163,-0.00000047,0.00000640,0.00000173,0.00000705,-0.00000111,-
 0.00000016,0.00000109,0.00000678,-0.00000082,-0.00000118,0.00000025,0.
 00000178,-0.00000352,-0.00000069,-0.00000067,0.00008424,-0.00007710,0.
 00002509,0.00000842,0.00000416,-0.00000392,0.00000537,0.00000431,0.000
 00206,-0.00004966,0.00004919,0.00002048,0.00437262,-0.01353832,0.00330
 847,0.00245378,-0.00801780,-0.00014881,-0.07138637,0.32215209,-0.00000
 557,-0.00000663,0.00000047,0.00000899,0.00001571,0.00001770,-0.0000044
 0,-0.00001239,-0.00000693,-0.00001014,0.00000480,-0.00000834,-0.000004
 78,-0.00000330,-0.00000836,0.00000142,0.00000532,0.00000523,-0.0000107
 3,0.00001028,0.00001029,-0.00001120,0.00001138,0.00000540,-0.00838834,
 0.03237103,-0.05066079,0.00002985,0.00130817,-0.00162405,-0.00001429,-
 0.00088461,-0.00046609,0.00014736,0.00036431,-0.00054058,-0.00026370,-
 0.00001789,0.00140683,-0.00001541,0.00001486,0.00000450,-0.00000131,0.
 00000001,-0.00000350,-0.00000292,-0.00000257,0.00000576,0.00000558,-0.
 00000899,0.00000089,0.00000245,-0.00000332,-0.00000399,-0.00000139,0.0
 0000073,0.00000058,-0.00000089,0.00000018,0.00000054,0.00000645,-0.000
 02737,0.00002363,-0.00000535,0.00000077,0.00000154,-0.00000511,0.00000
 171,-0.00000090,0.00001129,-0.00002833,-0.00001380,0.00804385,-0.02307
 320,0.00447456,-0.00882415,0.02535286,-0.00154772,0.00931247,-0.035393
 52,0.04892715\\-0.00000355,-0.00001529,-0.00001411,-0.00000398,0.00000
 043,0.00001390,-0.00001012,-0.00001020,0.00000039,0.00000639,-0.000021
 11,-0.00000690,0.00000507,0.00000619,0.00002492,-0.00000269,0.00001673
 ,-0.00001430,0.00000121,-0.00000474,-0.00001323,0.00000242,0.00000151,
 0.00001097,-0.00000223,0.00000027,-0.00000397,-0.00001324,-0.00000497,
 0.00004159,-0.00000865,-0.00001553,-0.00000246,0.00003676,0.00001072,-
 0.00003818,-0.00000545,-0.00000612,0.00000750,0.00000114,0.00001713,0.
 00000398,0.00000015,0.00000033,0.00000312,0.00000111,0.00000220,0.0000
 0682,-0.00001057,-0.00000476,-0.00001123,0.00000058,0.00000110,0.00000
 353,-0.00000349,0.00000044,0.00000734,0.00000556,-0.00000313,-0.000007
 78,-0.00000214,0.00002319,0.00000304,-0.00000015,0.00000226,-0.0000031
 0,0.00000318,0.00000143,-0.00000164,0.00000198,0.00000565,-0.00000311,
 0.00000269,0.00000006,-0.00000221,-0.00000125,-0.00000191,-0.00000314,
 -0.00000073,-0.00000189,-0.00000173\\\@
 Job cpu time:       0 days  6 hours 12 minutes 18.6 seconds.
 Elapsed time:       0 days  0 hours 31 minutes 19.3 seconds.
 File lengths (MBytes):  RWF= 100291 Int=      0 D2E=      0 Chk=     29 Scr=      1
 Normal termination of Gaussian 16 at Sat Feb 29 13:08:01 2020.
