 Entering Gaussian System, Link 0=g16
 Input=c1c2im_bf4.gjf
 Output=c1c2im_bf4.log
 Initial command:
 /opt/g16/l1.exe "/scratch/mtmjea001/heat_capicities/c1c2im_bf4/Gau-28838.inp" -scrdir="/scratch/mtmjea001/heat_capicities/c1c2im_bf4/"
 Entering Link 1 = /opt/g16/l1.exe PID=     28839.
  
 Copyright (c) 1988-2019, Gaussian, Inc.  All Rights Reserved.
  
 This is part of the Gaussian(R) 16 program.  It is based on
 the Gaussian(R) 09 system (copyright 2009, Gaussian, Inc.),
 the Gaussian(R) 03 system (copyright 2003, Gaussian, Inc.),
 the Gaussian(R) 98 system (copyright 1998, Gaussian, Inc.),
 the Gaussian(R) 94 system (copyright 1995, Gaussian, Inc.),
 the Gaussian 92(TM) system (copyright 1992, Gaussian, Inc.),
 the Gaussian 90(TM) system (copyright 1990, Gaussian, Inc.),
 the Gaussian 88(TM) system (copyright 1988, Gaussian, Inc.),
 the Gaussian 86(TM) system (copyright 1986, Carnegie Mellon
 University), and the Gaussian 82(TM) system (copyright 1983,
 Carnegie Mellon University). Gaussian is a federally registered
 trademark of Gaussian, Inc.
  
 This software contains proprietary and confidential information,
 including trade secrets, belonging to Gaussian, Inc.
  
 This software is provided under written license and may be
 used, copied, transmitted, or stored only in accord with that
 written license.
  
 The following legend is applicable only to US Government
 contracts under FAR:
  
                    RESTRICTED RIGHTS LEGEND
  
 Use, reproduction and disclosure by the US Government is
 subject to restrictions as set forth in subparagraphs (a)
 and (c) of the Commercial Computer Software - Restricted
 Rights clause in FAR 52.227-19.
  
 Gaussian, Inc.
 340 Quinnipiac St., Bldg. 40, Wallingford CT 06492
  
  
 ---------------------------------------------------------------
 Warning -- This program may not be used in any manner that
 competes with the business of Gaussian, Inc. or will provide
 assistance to any competitor of Gaussian, Inc.  The licensee
 of this program is prohibited from giving any competitor of
 Gaussian, Inc. access to this program.  By using this program,
 the user acknowledges that Gaussian, Inc. is engaged in the
 business of creating and licensing software in the field of
 computational chemistry and represents and warrants to the
 licensee that it is not a competitor of Gaussian, Inc. and that
 it will not use this program in any manner prohibited above.
 ---------------------------------------------------------------
  

 Cite this work as:
 Gaussian 16, Revision C.01,
 M. J. Frisch, G. W. Trucks, H. B. Schlegel, G. E. Scuseria, 
 M. A. Robb, J. R. Cheeseman, G. Scalmani, V. Barone, 
 G. A. Petersson, H. Nakatsuji, X. Li, M. Caricato, A. V. Marenich, 
 J. Bloino, B. G. Janesko, R. Gomperts, B. Mennucci, H. P. Hratchian, 
 J. V. Ortiz, A. F. Izmaylov, J. L. Sonnenberg, D. Williams-Young, 
 F. Ding, F. Lipparini, F. Egidi, J. Goings, B. Peng, A. Petrone, 
 T. Henderson, D. Ranasinghe, V. G. Zakrzewski, J. Gao, N. Rega, 
 G. Zheng, W. Liang, M. Hada, M. Ehara, K. Toyota, R. Fukuda, 
 J. Hasegawa, M. Ishida, T. Nakajima, Y. Honda, O. Kitao, H. Nakai, 
 T. Vreven, K. Throssell, J. A. Montgomery, Jr., J. E. Peralta, 
 F. Ogliaro, M. J. Bearpark, J. J. Heyd, E. N. Brothers, K. N. Kudin, 
 V. N. Staroverov, T. A. Keith, R. Kobayashi, J. Normand, 
 K. Raghavachari, A. P. Rendell, J. C. Burant, S. S. Iyengar, 
 J. Tomasi, M. Cossi, J. M. Millam, M. Klene, C. Adamo, R. Cammi, 
 J. W. Ochterski, R. L. Martin, K. Morokuma, O. Farkas, 
 J. B. Foresman, and D. J. Fox, Gaussian, Inc., Wallingford CT, 2019.
 
 ******************************************
 Gaussian 16:  ES64L-G16RevC.01  3-Jul-2019
                 6-Mar-2020 
 ******************************************
 %chk=c1c2cim_bf4.chk
 %mem=56Gb
 %nprocs=12
 Will use up to   12 processors via shared memory.
 Default route: test
 ------------------------------------------------------------------
 #wb97xd/def2svp/w06 opt(tight) freq temperature=365.1 scale=0.9788
 ------------------------------------------------------------------
 1/7=10,18=20,19=15,26=3,38=1,112=365100,114=978800/1,3;
 2/9=110,12=2,17=6,18=5,40=1/2;
 3/5=43,7=101,11=2,25=1,30=1,71=1,74=-58,82=40/1,2,3;
 4//1;
 5/5=2,38=5/2;
 6/7=2,8=2,9=2,10=2,28=1/1;
 7//1,2,3,16;
 1/7=10,18=20,19=15,26=3/3(2);
 2/9=110/2;
 99//99;
 2/9=110/2;
 3/5=43,7=101,11=2,25=1,30=1,71=1,74=-58,82=40/1,2,3;
 4/5=5,16=3,69=1/1;
 5/5=2,38=5/2;
 7//1,2,3,16;
 1/7=10,18=20,19=15,26=3/3(-5);
 2/9=110/2;
 6/7=2,8=2,9=2,10=2,19=2,28=1/1;
 99/9=1/99;
 ----------
 c1c2im_bf4
 ----------
 Symbolic Z-matrix:
 Charge =  0 Multiplicity = 1
 B                     1.93796   0.2077   -0.11557 
 F                     3.12312   0.53833  -0.69834 
 F                     2.02457  -0.99959   0.62382 
 F                     0.91132   0.01606  -1.08326 
 F                     1.4766    1.22137   0.76476 
 C                    -0.96129   2.58715  -0.52272 
 C                    -1.46054   1.86548   0.72423 
 N                    -1.58923   0.44058   0.43344 
 C                    -2.4827   -0.12652  -0.43796 
 C                    -2.09999  -1.41917  -0.60784 
 N                    -0.98623  -1.60801   0.16587 
 C                    -0.6813   -0.46711   0.77511 
 C                    -0.09021  -2.75082   0.11952 
 H                    -0.01798   2.14666  -0.84279 
 H                    -0.8043    3.63884  -0.28807 
 H                    -1.68666   2.5052   -1.33162 
 H                    -2.43235   2.24643   1.05161 
 H                    -0.7326    1.96456   1.53283 
 H                    -3.30647   0.42531  -0.85544 
 H                    -2.52329  -2.2078   -1.20491 
 H                     0.15591  -0.30861   1.43255 
 H                     0.42215  -2.83613   1.07566 
 H                     0.65009  -2.5625   -0.66034 
 H                    -0.6579   -3.65387  -0.09733 
 
 Add virtual bond connecting atoms H21        and F3         Dist= 4.06D+00.
 Add virtual bond connecting atoms H21        and F5         Dist= 4.02D+00.

 GradGradGradGradGradGradGradGradGradGradGradGradGradGradGradGradGradGrad
 Berny optimization.
 Initialization pass.
                           ----------------------------
                           !    Initial Parameters    !
                           ! (Angstroms and Degrees)  !
 --------------------------                            --------------------------
 ! Name  Definition              Value          Derivative Info.                !
 --------------------------------------------------------------------------------
 ! R1    R(1,2)                  1.3614         estimate D2E/DX2                !
 ! R2    R(1,3)                  1.4184         estimate D2E/DX2                !
 ! R3    R(1,4)                  1.4238         estimate D2E/DX2                !
 ! R4    R(1,5)                  1.4196         estimate D2E/DX2                !
 ! R5    R(3,21)                 2.1502         estimate D2E/DX2                !
 ! R6    R(5,21)                 2.1286         estimate D2E/DX2                !
 ! R7    R(6,7)                  1.5248         estimate D2E/DX2                !
 ! R8    R(6,14)                 1.0892         estimate D2E/DX2                !
 ! R9    R(6,15)                 1.0889         estimate D2E/DX2                !
 ! R10   R(6,16)                 1.0896         estimate D2E/DX2                !
 ! R11   R(7,8)                  1.46           estimate D2E/DX2                !
 ! R12   R(7,17)                 1.0939         estimate D2E/DX2                !
 ! R13   R(7,18)                 1.0925         estimate D2E/DX2                !
 ! R14   R(8,9)                  1.3708         estimate D2E/DX2                !
 ! R15   R(8,12)                 1.3285         estimate D2E/DX2                !
 ! R16   R(9,10)                 1.3588         estimate D2E/DX2                !
 ! R17   R(9,19)                 1.0758         estimate D2E/DX2                !
 ! R18   R(10,11)                1.3692         estimate D2E/DX2                !
 ! R19   R(10,20)                1.0759         estimate D2E/DX2                !
 ! R20   R(11,12)                1.3288         estimate D2E/DX2                !
 ! R21   R(11,13)                1.4529         estimate D2E/DX2                !
 ! R22   R(12,21)                1.0762         estimate D2E/DX2                !
 ! R23   R(13,22)                1.0881         estimate D2E/DX2                !
 ! R24   R(13,23)                1.0916         estimate D2E/DX2                !
 ! R25   R(13,24)                1.0885         estimate D2E/DX2                !
 ! A1    A(2,1,3)              112.1293         estimate D2E/DX2                !
 ! A2    A(2,1,4)              111.6821         estimate D2E/DX2                !
 ! A3    A(2,1,5)              112.0205         estimate D2E/DX2                !
 ! A4    A(3,1,4)              106.4853         estimate D2E/DX2                !
 ! A5    A(3,1,5)              107.7197         estimate D2E/DX2                !
 ! A6    A(4,1,5)              106.4536         estimate D2E/DX2                !
 ! A7    A(1,3,21)              82.4997         estimate D2E/DX2                !
 ! A8    A(1,5,21)              83.2782         estimate D2E/DX2                !
 ! A9    A(7,6,14)             109.4195         estimate D2E/DX2                !
 ! A10   A(7,6,15)             109.153          estimate D2E/DX2                !
 ! A11   A(7,6,16)             110.7045         estimate D2E/DX2                !
 ! A12   A(14,6,15)            109.2116         estimate D2E/DX2                !
 ! A13   A(14,6,16)            109.147          estimate D2E/DX2                !
 ! A14   A(15,6,16)            109.1835         estimate D2E/DX2                !
 ! A15   A(6,7,8)              109.1418         estimate D2E/DX2                !
 ! A16   A(6,7,17)             111.7642         estimate D2E/DX2                !
 ! A17   A(6,7,18)             110.1324         estimate D2E/DX2                !
 ! A18   A(8,7,17)             108.7341         estimate D2E/DX2                !
 ! A19   A(8,7,18)             107.1375         estimate D2E/DX2                !
 ! A20   A(17,7,18)            109.8061         estimate D2E/DX2                !
 ! A21   A(7,8,9)              126.002          estimate D2E/DX2                !
 ! A22   A(7,8,12)             123.7357         estimate D2E/DX2                !
 ! A23   A(9,8,12)             109.042          estimate D2E/DX2                !
 ! A24   A(8,9,10)             106.8251         estimate D2E/DX2                !
 ! A25   A(8,9,19)             122.245          estimate D2E/DX2                !
 ! A26   A(10,9,19)            130.9292         estimate D2E/DX2                !
 ! A27   A(9,10,11)            106.838          estimate D2E/DX2                !
 ! A28   A(9,10,20)            130.9862         estimate D2E/DX2                !
 ! A29   A(11,10,20)           122.1757         estimate D2E/DX2                !
 ! A30   A(10,11,12)           109.1062         estimate D2E/DX2                !
 ! A31   A(10,11,13)           126.3057         estimate D2E/DX2                !
 ! A32   A(12,11,13)           123.2589         estimate D2E/DX2                !
 ! A33   A(8,12,11)            108.1718         estimate D2E/DX2                !
 ! A34   A(8,12,21)            126.0234         estimate D2E/DX2                !
 ! A35   A(11,12,21)           125.8046         estimate D2E/DX2                !
 ! A36   A(11,13,22)           108.9062         estimate D2E/DX2                !
 ! A37   A(11,13,23)           107.7771         estimate D2E/DX2                !
 ! A38   A(11,13,24)           109.7112         estimate D2E/DX2                !
 ! A39   A(22,13,23)           108.7807         estimate D2E/DX2                !
 ! A40   A(22,13,24)           110.8297         estimate D2E/DX2                !
 ! A41   A(23,13,24)           110.7618         estimate D2E/DX2                !
 ! A42   A(3,21,5)              64.772          estimate D2E/DX2                !
 ! A43   A(3,21,12)            113.5134         estimate D2E/DX2                !
 ! A44   A(5,21,12)            113.3822         estimate D2E/DX2                !
 ! D1    D(2,1,3,21)           165.3759         estimate D2E/DX2                !
 ! D2    D(4,1,3,21)           -72.1935         estimate D2E/DX2                !
 ! D3    D(5,1,3,21)            41.6757         estimate D2E/DX2                !
 ! D4    D(2,1,5,21)          -165.8735         estimate D2E/DX2                !
 ! D5    D(3,1,5,21)           -42.1072         estimate D2E/DX2                !
 ! D6    D(4,1,5,21)            71.7831         estimate D2E/DX2                !
 ! D7    D(1,3,21,5)           -27.8364         estimate D2E/DX2                !
 ! D8    D(1,3,21,12)           78.0323         estimate D2E/DX2                !
 ! D9    D(1,5,21,3)            27.7581         estimate D2E/DX2                !
 ! D10   D(1,5,21,12)          -78.3095         estimate D2E/DX2                !
 ! D11   D(14,6,7,8)           -56.9484         estimate D2E/DX2                !
 ! D12   D(14,6,7,17)         -177.2562         estimate D2E/DX2                !
 ! D13   D(14,6,7,18)           60.4034         estimate D2E/DX2                !
 ! D14   D(15,6,7,8)          -176.407          estimate D2E/DX2                !
 ! D15   D(15,6,7,17)           63.2852         estimate D2E/DX2                !
 ! D16   D(15,6,7,18)          -59.0552         estimate D2E/DX2                !
 ! D17   D(16,6,7,8)            63.3852         estimate D2E/DX2                !
 ! D18   D(16,6,7,17)          -56.9226         estimate D2E/DX2                !
 ! D19   D(16,6,7,18)         -179.263          estimate D2E/DX2                !
 ! D20   D(6,7,8,9)            -66.6111         estimate D2E/DX2                !
 ! D21   D(6,7,8,12)            99.3633         estimate D2E/DX2                !
 ! D22   D(17,7,8,9)            55.5406         estimate D2E/DX2                !
 ! D23   D(17,7,8,12)         -138.485          estimate D2E/DX2                !
 ! D24   D(18,7,8,9)           174.1604         estimate D2E/DX2                !
 ! D25   D(18,7,8,12)          -19.8652         estimate D2E/DX2                !
 ! D26   D(7,8,9,10)           168.3545         estimate D2E/DX2                !
 ! D27   D(7,8,9,19)           -11.9274         estimate D2E/DX2                !
 ! D28   D(12,8,9,10)            0.6651         estimate D2E/DX2                !
 ! D29   D(12,8,9,19)         -179.6168         estimate D2E/DX2                !
 ! D30   D(7,8,12,11)         -169.2643         estimate D2E/DX2                !
 ! D31   D(7,8,12,21)           10.8334         estimate D2E/DX2                !
 ! D32   D(9,8,12,11)           -1.2352         estimate D2E/DX2                !
 ! D33   D(9,8,12,21)          178.8625         estimate D2E/DX2                !
 ! D34   D(8,9,10,11)            0.1446         estimate D2E/DX2                !
 ! D35   D(8,9,10,20)         -179.9829         estimate D2E/DX2                !
 ! D36   D(19,9,10,11)        -179.5398         estimate D2E/DX2                !
 ! D37   D(19,9,10,20)           0.3327         estimate D2E/DX2                !
 ! D38   D(9,10,11,12)          -0.906          estimate D2E/DX2                !
 ! D39   D(9,10,11,13)        -167.9955         estimate D2E/DX2                !
 ! D40   D(20,10,11,12)        179.2077         estimate D2E/DX2                !
 ! D41   D(20,10,11,13)         12.1181         estimate D2E/DX2                !
 ! D42   D(10,11,12,8)           1.3286         estimate D2E/DX2                !
 ! D43   D(10,11,12,21)       -178.7688         estimate D2E/DX2                !
 ! D44   D(13,11,12,8)         168.8941         estimate D2E/DX2                !
 ! D45   D(13,11,12,21)        -11.2033         estimate D2E/DX2                !
 ! D46   D(10,11,13,22)       -156.3799         estimate D2E/DX2                !
 ! D47   D(10,11,13,23)         85.7685         estimate D2E/DX2                !
 ! D48   D(10,11,13,24)        -34.9153         estimate D2E/DX2                !
 ! D49   D(12,11,13,22)         38.2441         estimate D2E/DX2                !
 ! D50   D(12,11,13,23)        -79.6075         estimate D2E/DX2                !
 ! D51   D(12,11,13,24)        159.7087         estimate D2E/DX2                !
 ! D52   D(8,12,21,3)         -130.5483         estimate D2E/DX2                !
 ! D53   D(8,12,21,5)          -59.1074         estimate D2E/DX2                !
 ! D54   D(11,12,21,3)          49.5661         estimate D2E/DX2                !
 ! D55   D(11,12,21,5)         121.007          estimate D2E/DX2                !
 --------------------------------------------------------------------------------
 Trust Radius=3.00D-01 FncErr=1.00D-07 GrdErr=1.00D-06 EigMax=2.50D+02 EigMin=1.00D-04
 Number of steps in this run=    134 maximum allowed number of steps=    144.
 GradGradGradGradGradGradGradGradGradGradGradGradGradGradGradGradGradGrad

                          Input orientation:                          
 ---------------------------------------------------------------------
 Center     Atomic      Atomic             Coordinates (Angstroms)
 Number     Number       Type             X           Y           Z
 ---------------------------------------------------------------------
      1          5           0        1.937960    0.207700   -0.115570
      2          9           0        3.123120    0.538330   -0.698340
      3          9           0        2.024570   -0.999590    0.623820
      4          9           0        0.911320    0.016060   -1.083260
      5          9           0        1.476600    1.221370    0.764760
      6          6           0       -0.961290    2.587150   -0.522720
      7          6           0       -1.460540    1.865480    0.724230
      8          7           0       -1.589230    0.440580    0.433440
      9          6           0       -2.482700   -0.126520   -0.437960
     10          6           0       -2.099990   -1.419170   -0.607840
     11          7           0       -0.986230   -1.608010    0.165870
     12          6           0       -0.681300   -0.467110    0.775110
     13          6           0       -0.090210   -2.750820    0.119520
     14          1           0       -0.017980    2.146660   -0.842790
     15          1           0       -0.804300    3.638840   -0.288070
     16          1           0       -1.686660    2.505200   -1.331620
     17          1           0       -2.432350    2.246430    1.051610
     18          1           0       -0.732600    1.964560    1.532830
     19          1           0       -3.306470    0.425310   -0.855440
     20          1           0       -2.523290   -2.207800   -1.204910
     21          1           0        0.155910   -0.308610    1.432550
     22          1           0        0.422150   -2.836130    1.075660
     23          1           0        0.650090   -2.562500   -0.660340
     24          1           0       -0.657900   -3.653870   -0.097330
 ---------------------------------------------------------------------
                    Distance matrix (angstroms):
                    1          2          3          4          5
     1  B    0.000000
     2  F    1.361448   0.000000
     3  F    1.418361   2.306538   0.000000
     4  F    1.423776   2.304992   2.277058   0.000000
     5  F    1.419634   2.306130   2.291898   2.277607   0.000000
     6  C    3.772692   4.572845   4.805686   3.229764   3.076730
     7  C    3.873409   4.979455   4.512726   3.509002   3.007210
     8  N    3.577250   4.847342   3.894854   2.955224   3.180993
     9  C    4.444983   5.651110   4.712230   3.457761   4.351942
    10  C    4.381104   5.578609   4.324931   3.369554   4.652793
    11  N    3.453534   4.715972   3.105609   2.792602   3.798630
    12  C    2.847666   4.201854   2.761912   2.494680   2.740001
    13  C    3.594660   4.670427   2.791670   3.178894   4.318509
    14  H    2.848529   3.531869   4.027635   2.336853   2.382047
    15  H    4.395733   5.020569   5.509000   4.086590   3.486419
    16  H    4.460398   5.234845   5.466308   3.606522   4.006151
    17  H    4.961687   6.069858   5.530261   4.551082   4.051286
    18  H    3.596619   4.677481   4.149033   3.652814   2.454145
    19  H    5.300831   6.432502   5.713015   4.243718   5.112389
    20  H    5.188839   6.299190   5.048471   4.093519   5.624760
    21  H    2.416393   3.749978   2.150206   2.646763   2.128616
    22  H    3.603000   4.672183   2.478868   3.610431   4.203788
    23  H    3.103126   3.966418   2.445598   2.626038   4.126948
    24  H    4.653015   5.677312   3.841992   4.111313   5.391406
                    6          7          8          9         10
     6  C    0.000000
     7  C    1.524776   0.000000
     8  N    2.432347   1.459952   0.000000
     9  C    3.112214   2.522610   1.370850   0.000000
    10  C    4.165871   3.601699   2.191760   1.358775   0.000000
    11  N    4.251370   3.549911   2.152190   2.190627   1.369215
    12  C    3.330355   2.459833   1.328524   2.198314   2.198102
    13  C    5.446575   4.853216   3.539865   3.594683   2.518245
    14  H    1.089179   2.148393   2.647319   3.377289   4.135833
    15  H    1.088925   2.144810   3.371284   4.125219   5.231112
    16  H    1.089586   2.164923   2.718011   2.891065   4.011905
    17  H    2.181427   1.093945   2.086643   2.802186   4.037432
    18  H    2.159908   1.092496   2.065185   3.364443   4.231058
    19  H    3.206887   2.824341   2.147174   1.075827   2.217883
    20  H    5.088887   4.630619   3.251242   2.218465   1.075924
    21  H    3.668330   2.800231   2.145931   3.239479   3.238151
    22  H    5.820712   5.076727   3.898067   4.251022   3.347109
    23  H    5.397627   5.096940   3.902486   3.974648   2.978741
    24  H    6.262853   5.637590   4.232448   3.985991   2.708160
                   11         12         13         14         15
    11  N    0.000000
    12  C    1.328837   0.000000
    13  C    1.452933   2.448370   0.000000
    14  H    4.006551   3.144740   4.991650   0.000000
    15  H    5.269592   4.243148   6.442345   1.775560   0.000000
    16  H    4.433010   3.779377   5.681567   1.775387   1.775583
    17  H    4.210998   3.241285   5.597046   3.070487   2.526677
    18  H    3.833558   2.547507   4.964365   2.487451   2.474678
    19  H    3.249766   3.216617   4.624141   3.711788   4.112121
    20  H    2.145073   3.216117   2.822918   5.036768   6.162688
    21  H    2.144155   1.076230   2.783705   3.351979   4.411904
    22  H    2.078348   2.630625   1.088115   5.357458   6.729723
    23  H    2.066692   2.867713   1.091646   4.759810   6.380474
    24  H    2.088688   3.304109   1.088483   5.883142   7.296673
                   16         17         18         19         20
    16  H    0.000000
    17  H    2.510538   0.000000
    18  H    3.067180   1.788903   0.000000
    19  H    2.678894   2.778022   3.833788   0.000000
    20  H    4.788358   4.994028   5.301922   2.769254   0.000000
    21  H    4.353530   3.656834   2.442705   4.214453   4.212034
    22  H    6.226707   5.829337   4.958737   5.316836   3.777753
    23  H    5.620730   5.963054   5.216905   4.961798   3.239245
    24  H    6.365215   6.267557   5.850620   4.922333   2.607208
                   21         22         23         24
    21  H    0.000000
    22  H    2.566439   0.000000
    23  H    3.115192   1.772153   0.000000
    24  H    3.767437   1.791958   1.794131   0.000000
 Stoichiometry    C6H11BF4N2
 Framework group  C1[X(C6H11BF4N2)]
 Deg. of freedom    66
 Full point group                 C1      NOp   1
 Largest Abelian subgroup         C1      NOp   1
 Largest concise Abelian subgroup C1      NOp   1
                         Standard orientation:                         
 ---------------------------------------------------------------------
 Center     Atomic      Atomic             Coordinates (Angstroms)
 Number     Number       Type             X           Y           Z
 ---------------------------------------------------------------------
      1          5           0        1.926834   -0.140392    0.106635
      2          9           0        3.127065   -0.425211    0.682714
      3          9           0        1.962942    1.069133   -0.633292
      4          9           0        0.899085    0.012025    1.080103
      5          9           0        1.499693   -1.171231   -0.771023
      6          6           0       -0.876762   -2.629081    0.530283
      7          6           0       -1.410332   -1.927404   -0.713861
      8          7           0       -1.591885   -0.508404   -0.422418
      9          6           0       -2.501495    0.024275    0.453990
     10          6           0       -2.167647    1.330685    0.621640
     11          7           0       -1.066327    1.561859   -0.158362
     12          6           0       -0.721347    0.433319   -0.769260
     13          6           0       -0.214510    2.738176   -0.117134
     14          1           0        0.050768   -2.152684    0.844995
     15          1           0       -0.680915   -3.674046    0.294802
     16          1           0       -1.600161   -2.574771    1.343266
     17          1           0       -2.368663   -2.345399   -1.035724
     18          1           0       -0.683707   -1.998733   -1.526557
     19          1           0       -3.301144   -0.558605    0.876146
     20          1           0       -2.617478    2.102675    1.221054
     21          1           0        0.117596    0.306841   -1.431413
     22          1           0        0.288798    2.842802   -1.076159
     23          1           0        0.536854    2.578569    0.658539
     24          1           0       -0.815154    3.618867    0.102876
 ---------------------------------------------------------------------
 Rotational constants (GHZ):           1.0402019           0.7260886           0.5031428
 Standard basis: def2SVP (5D, 7F)
 There are   250 symmetry adapted cartesian basis functions of A   symmetry.
 There are   237 symmetry adapted basis functions of A   symmetry.
   237 basis functions,   402 primitive gaussians,   250 cartesian basis functions
    51 alpha electrons       51 beta electrons
       nuclear repulsion energy       922.9345798840 Hartrees.
 NAtoms=   24 NActive=   24 NUniq=   24 SFac= 1.00D+00 NAtFMM=   60 NAOKFM=F Big=F
 Integral buffers will be    131072 words long.
 Raffenetti 2 integral format.
 Two-electron integral symmetry is turned on.
 Nuclear repulsion after empirical dispersion term =      922.9156917163 Hartrees.
 Standard density basis: W06 (5D, 7F)
   758 Density fitting functions
 There are   758 symmetry adapted density basis functions of A   symmetry.
 One-electron integrals computed using PRISM.
   1 Symmetry operations used in ECPInt.
 ECPInt:  NShTT=    6216 NPrTT=   22568 LenC2=    6061 LenP2D=   16624.
 LDataN:  DoStor=T MaxTD1= 4 Len=   56
 NBasis=   237 RedAO= T EigKep=  1.44D-03  NBF=   237
 NBsUse=   237 1.00D-06 EigRej= -1.00D+00 NBFU=   237
 ExpMin= 8.36D-02 ExpMax= 2.89D+03 ExpMxC= 4.35D+02 IAcc=3 IRadAn=         5 AccDes= 0.00D+00
 Harris functional with IExCor= 4639 and IRadAn=       5 diagonalized for initial guess.
 HarFok:  IExCor= 4639 AccDes= 0.00D+00 IRadAn=         5 IDoV= 1 UseB2=F ITyADJ=14
 ICtDFT=  3500011 ScaDFX=  1.000000  1.000000  1.000000  1.000000
 FoFCou: FMM=F IPFlag=           0 FMFlag=      100000 FMFlg1=           0
         NFxFlg=           0 DoJE=T BraDBF=F KetDBF=T FulRan=T
         wScrn=  0.000000 ICntrl=       500 IOpCl=  0 I1Cent=   200000004 NGrid=           0
         NMat0=    1 NMatS0=      1 NMatT0=    0 NMatD0=    1 NMtDS0=    0 NMtDT0=    0
 Petite list used in FoFCou.
 Requested convergence on RMS density matrix=1.00D-08 within 128 cycles.
 Requested convergence on MAX density matrix=1.00D-06.
 Requested convergence on             energy=1.00D-06.
 No special actions if energy rises.
 Integral accuracy reduced to 1.0D-05 until final iterations.
 Initial convergence to 1.0D-05 achieved.  Increase integral accuracy.
 SCF Done:  E(RwB97XD) =  -768.425594010     A.U. after   14 cycles
            NFock= 14  Conv=0.93D-08     -V/T= 2.0081

 **********************************************************************

            Population analysis using the SCF Density.

 **********************************************************************

 Orbital symmetries:
       Occupied  (A) (A) (A) (A) (A) (A) (A) (A) (A) (A) (A) (A)
                 (A) (A) (A) (A) (A) (A) (A) (A) (A) (A) (A) (A)
                 (A) (A) (A) (A) (A) (A) (A) (A) (A) (A) (A) (A)
                 (A) (A) (A) (A) (A) (A) (A) (A) (A) (A) (A) (A)
                 (A) (A) (A)
       Virtual   (A) (A) (A) (A) (A) (A) (A) (A) (A) (A) (A) (A)
                 (A) (A) (A) (A) (A) (A) (A) (A) (A) (A) (A) (A)
                 (A) (A) (A) (A) (A) (A) (A) (A) (A) (A) (A) (A)
                 (A) (A) (A) (A) (A) (A) (A) (A) (A) (A) (A) (A)
                 (A) (A) (A) (A) (A) (A) (A) (A) (A) (A) (A) (A)
                 (A) (A) (A) (A) (A) (A) (A) (A) (A) (A) (A) (A)
                 (A) (A) (A) (A) (A) (A) (A) (A) (A) (A) (A) (A)
                 (A) (A) (A) (A) (A) (A) (A) (A) (A) (A) (A) (A)
                 (A) (A) (A) (A) (A) (A) (A) (A) (A) (A) (A) (A)
                 (A) (A) (A) (A) (A) (A) (A) (A) (A) (A) (A) (A)
                 (A) (A) (A) (A) (A) (A) (A) (A) (A) (A) (A) (A)
                 (A) (A) (A) (A) (A) (A) (A) (A) (A) (A) (A) (A)
                 (A) (A) (A) (A) (A) (A) (A) (A) (A) (A) (A) (A)
                 (A) (A) (A) (A) (A) (A) (A) (A) (A) (A) (A) (A)
                 (A) (A) (A) (A) (A) (A) (A) (A) (A) (A) (A) (A)
                 (A) (A) (A) (A) (A) (A)
 The electronic state is 1-A.
 Alpha  occ. eigenvalues --  -24.72877 -24.72812 -24.72659 -24.71466 -14.55781
 Alpha  occ. eigenvalues --  -14.55692 -10.41488 -10.37923 -10.37831 -10.36783
 Alpha  occ. eigenvalues --  -10.36061 -10.29853  -6.92025  -1.23758  -1.20009
 Alpha  occ. eigenvalues --   -1.17842  -1.17806  -1.17745  -1.07721  -0.92807
 Alpha  occ. eigenvalues --   -0.89418  -0.84243  -0.77922  -0.74518  -0.72673
 Alpha  occ. eigenvalues --   -0.66816  -0.62573  -0.59914  -0.59801  -0.58835
 Alpha  occ. eigenvalues --   -0.58294  -0.57270  -0.55130  -0.54889  -0.54419
 Alpha  occ. eigenvalues --   -0.53435  -0.53279  -0.51523  -0.49107  -0.47961
 Alpha  occ. eigenvalues --   -0.46423  -0.45596  -0.44712  -0.43580  -0.42862
 Alpha  occ. eigenvalues --   -0.42550  -0.40954  -0.40063  -0.39911  -0.39866
 Alpha  occ. eigenvalues --   -0.36486
 Alpha virt. eigenvalues --    0.04289   0.05956   0.12124   0.13413   0.15531
 Alpha virt. eigenvalues --    0.16627   0.17188   0.18708   0.19585   0.19816
 Alpha virt. eigenvalues --    0.21624   0.22466   0.23349   0.23987   0.25944
 Alpha virt. eigenvalues --    0.27153   0.28823   0.29168   0.32388   0.32859
 Alpha virt. eigenvalues --    0.36538   0.37717   0.39526   0.41484   0.41969
 Alpha virt. eigenvalues --    0.43170   0.44179   0.48390   0.49514   0.50878
 Alpha virt. eigenvalues --    0.51798   0.52321   0.52669   0.54162   0.55838
 Alpha virt. eigenvalues --    0.57310   0.58044   0.58910   0.60055   0.62259
 Alpha virt. eigenvalues --    0.65277   0.66793   0.68404   0.69055   0.69745
 Alpha virt. eigenvalues --    0.71638   0.72272   0.72873   0.73471   0.74824
 Alpha virt. eigenvalues --    0.75363   0.75919   0.77360   0.77549   0.77622
 Alpha virt. eigenvalues --    0.79183   0.80090   0.85875   0.85950   0.88621
 Alpha virt. eigenvalues --    0.90955   0.94734   0.97727   0.99957   1.00712
 Alpha virt. eigenvalues --    1.10835   1.14403   1.15801   1.18322   1.19512
 Alpha virt. eigenvalues --    1.21930   1.23056   1.24491   1.24726   1.26778
 Alpha virt. eigenvalues --    1.29314   1.30232   1.32474   1.33826   1.36643
 Alpha virt. eigenvalues --    1.37991   1.39788   1.44126   1.45336   1.46652
 Alpha virt. eigenvalues --    1.48808   1.49682   1.51468   1.52288   1.54651
 Alpha virt. eigenvalues --    1.55352   1.58233   1.60189   1.62566   1.64151
 Alpha virt. eigenvalues --    1.65280   1.67790   1.68171   1.70287   1.71698
 Alpha virt. eigenvalues --    1.73609   1.76009   1.79057   1.79602   1.81193
 Alpha virt. eigenvalues --    1.82672   1.83175   1.84484   1.85613   1.85829
 Alpha virt. eigenvalues --    1.87109   1.87648   1.88520   1.90088   1.90795
 Alpha virt. eigenvalues --    1.92010   1.94286   1.94814   1.94912   1.97664
 Alpha virt. eigenvalues --    1.99464   2.01261   2.04765   2.05780   2.09148
 Alpha virt. eigenvalues --    2.09597   2.11364   2.12843   2.17881   2.20996
 Alpha virt. eigenvalues --    2.24321   2.25049   2.31421   2.34715   2.35719
 Alpha virt. eigenvalues --    2.38460   2.40996   2.43543   2.46280   2.49698
 Alpha virt. eigenvalues --    2.52189   2.53866   2.55854   2.57883   2.63938
 Alpha virt. eigenvalues --    2.65210   2.70715   2.76323   2.77280   2.81176
 Alpha virt. eigenvalues --    2.83086   2.87335   2.90617   2.91880   2.94288
 Alpha virt. eigenvalues --    2.96801   2.99638   3.01478   3.02193   3.04489
 Alpha virt. eigenvalues --    3.09602   3.10326   3.19610   3.19888   3.20287
 Alpha virt. eigenvalues --    3.21547   3.23236   3.23920   3.24034   3.24486
 Alpha virt. eigenvalues --    3.25098   3.26067   3.26749   3.36682   3.42813
 Alpha virt. eigenvalues --    3.49371   3.50050   3.53852   3.57461   3.57845
 Alpha virt. eigenvalues --    3.81152   3.82457   3.83139   3.88980   3.89592
 Alpha virt. eigenvalues --    3.94965
          Condensed to atoms (all electrons):
               1          2          3          4          5          6
     1  B    3.138731   0.462970   0.362385   0.333435   0.356503   0.002955
     2  F    0.462970   8.805409  -0.020383  -0.020430  -0.020154   0.000073
     3  F    0.362385  -0.020383   8.978741  -0.022058  -0.021694   0.000017
     4  F    0.333435  -0.020430  -0.022058   8.992235  -0.020721  -0.004623
     5  F    0.356503  -0.020154  -0.021694  -0.020721   8.982642  -0.007078
     6  C    0.002955   0.000073   0.000017  -0.004623  -0.007078   4.607755
     7  C    0.000040  -0.000001  -0.000025  -0.003266   0.007512   0.421926
     8  N    0.000670  -0.000001   0.000461  -0.011444  -0.005493  -0.055960
     9  C   -0.000060   0.000000   0.000058   0.000394  -0.000168  -0.003065
    10  C    0.000484   0.000001  -0.000217   0.004821   0.000046   0.000393
    11  N    0.000011  -0.000002  -0.006036  -0.015548   0.000374  -0.000439
    12  C   -0.019130  -0.000163  -0.000960   0.052413  -0.000940  -0.005826
    13  C    0.000357   0.000005   0.011284  -0.003069  -0.000074   0.000017
    14  H   -0.002735  -0.001312  -0.000066   0.022663   0.011164   0.378182
    15  H   -0.000260  -0.000000   0.000000   0.000171  -0.000209   0.388308
    16  H   -0.000038  -0.000001   0.000000  -0.000168   0.000300   0.389118
    17  H   -0.000058   0.000000  -0.000001  -0.000005   0.000269  -0.031400
    18  H    0.000639   0.000015  -0.000029   0.000045   0.010316  -0.010508
    19  H    0.000007  -0.000000   0.000000  -0.000007  -0.000002  -0.001572
    20  H    0.000016   0.000000  -0.000002   0.000003   0.000000   0.000009
    21  H    0.006075   0.000064   0.019592  -0.004618   0.018086  -0.000364
    22  H   -0.000072   0.000015   0.003515   0.000020  -0.000003  -0.000001
    23  H    0.002493  -0.000274   0.001482   0.009834   0.000010   0.000013
    24  H   -0.000014  -0.000000   0.000787   0.000039  -0.000001  -0.000000
               7          8          9         10         11         12
     1  B    0.000040   0.000670  -0.000060   0.000484   0.000011  -0.019130
     2  F   -0.000001  -0.000001   0.000000   0.000001  -0.000002  -0.000163
     3  F   -0.000025   0.000461   0.000058  -0.000217  -0.006036  -0.000960
     4  F   -0.003266  -0.011444   0.000394   0.004821  -0.015548   0.052413
     5  F    0.007512  -0.005493  -0.000168   0.000046   0.000374  -0.000940
     6  C    0.421926  -0.055960  -0.003065   0.000393  -0.000439  -0.005826
     7  C    4.593325   0.261533  -0.035074   0.003129   0.005009  -0.026197
     8  N    0.261533   6.451996   0.392609  -0.059463  -0.059757   0.384689
     9  C   -0.035074   0.392609   4.809510   0.521596  -0.053844  -0.103066
    10  C    0.003129  -0.059463   0.521596   4.806021   0.389266  -0.094841
    11  N    0.005009  -0.059757  -0.053844   0.389266   6.397662   0.387159
    12  C   -0.026197   0.384689  -0.103066  -0.094841   0.387159   4.854457
    13  C   -0.000059   0.004143   0.006213  -0.033137   0.285169  -0.026212
    14  H   -0.011819  -0.004076  -0.000643  -0.000205  -0.000336   0.004911
    15  H   -0.020075   0.005128   0.000032   0.000016  -0.000005   0.000211
    16  H   -0.023442  -0.005967   0.006914  -0.000491   0.000114  -0.000923
    17  H    0.395378  -0.023416  -0.007387   0.000715  -0.000297   0.004148
    18  H    0.380302  -0.013184   0.005855  -0.000480   0.000800  -0.005422
    19  H    0.000370  -0.030831   0.430549  -0.037395   0.003607   0.004741
    20  H   -0.000122   0.003588  -0.036782   0.430093  -0.029208   0.004938
    21  H   -0.001972  -0.012904   0.002607   0.002059  -0.014240   0.373274
    22  H    0.000012   0.000409  -0.000511   0.004471  -0.011796  -0.006073
    23  H   -0.000031   0.000161  -0.000284   0.000550  -0.021273  -0.004270
    24  H    0.000010  -0.000226   0.001423  -0.008340  -0.021988   0.005548
              13         14         15         16         17         18
     1  B    0.000357  -0.002735  -0.000260  -0.000038  -0.000058   0.000639
     2  F    0.000005  -0.001312  -0.000000  -0.000001   0.000000   0.000015
     3  F    0.011284  -0.000066   0.000000   0.000000  -0.000001  -0.000029
     4  F   -0.003069   0.022663   0.000171  -0.000168  -0.000005   0.000045
     5  F   -0.000074   0.011164  -0.000209   0.000300   0.000269   0.010316
     6  C    0.000017   0.378182   0.388308   0.389118  -0.031400  -0.010508
     7  C   -0.000059  -0.011819  -0.020075  -0.023442   0.395378   0.380302
     8  N    0.004143  -0.004076   0.005128  -0.005967  -0.023416  -0.013184
     9  C    0.006213  -0.000643   0.000032   0.006914  -0.007387   0.005855
    10  C   -0.033137  -0.000205   0.000016  -0.000491   0.000715  -0.000480
    11  N    0.285169  -0.000336  -0.000005   0.000114  -0.000297   0.000800
    12  C   -0.026212   0.004911   0.000211  -0.000923   0.004148  -0.005422
    13  C    4.479857  -0.000021  -0.000000   0.000000   0.000004  -0.000002
    14  H   -0.000021   0.533894  -0.005521  -0.016349   0.005965  -0.009348
    15  H   -0.000000  -0.005521   0.607177  -0.020147  -0.002322  -0.005417
    16  H    0.000000  -0.016349  -0.020147   0.642684  -0.008551   0.006502
    17  H    0.000004   0.005965  -0.002322  -0.008551   0.635178  -0.023680
    18  H   -0.000002  -0.009348  -0.005417   0.006502  -0.023680   0.581708
    19  H   -0.000094   0.000031  -0.000064   0.001312   0.000959   0.000054
    20  H   -0.002952  -0.000000  -0.000000   0.000007   0.000004   0.000008
    21  H   -0.003268  -0.000628   0.000016  -0.000093   0.000208   0.000044
    22  H    0.400625   0.000007  -0.000000   0.000000  -0.000001  -0.000006
    23  H    0.406988  -0.000064   0.000000   0.000000   0.000001   0.000005
    24  H    0.392085  -0.000002  -0.000000   0.000000  -0.000001   0.000000
              19         20         21         22         23         24
     1  B    0.000007   0.000016   0.006075  -0.000072   0.002493  -0.000014
     2  F   -0.000000   0.000000   0.000064   0.000015  -0.000274  -0.000000
     3  F    0.000000  -0.000002   0.019592   0.003515   0.001482   0.000787
     4  F   -0.000007   0.000003  -0.004618   0.000020   0.009834   0.000039
     5  F   -0.000002   0.000000   0.018086  -0.000003   0.000010  -0.000001
     6  C   -0.001572   0.000009  -0.000364  -0.000001   0.000013  -0.000000
     7  C    0.000370  -0.000122  -0.001972   0.000012  -0.000031   0.000010
     8  N   -0.030831   0.003588  -0.012904   0.000409   0.000161  -0.000226
     9  C    0.430549  -0.036782   0.002607  -0.000511  -0.000284   0.001423
    10  C   -0.037395   0.430093   0.002059   0.004471   0.000550  -0.008340
    11  N    0.003607  -0.029208  -0.014240  -0.011796  -0.021273  -0.021988
    12  C    0.004741   0.004938   0.373274  -0.006073  -0.004270   0.005548
    13  C   -0.000094  -0.002952  -0.003268   0.400625   0.406988   0.392085
    14  H    0.000031  -0.000000  -0.000628   0.000007  -0.000064  -0.000002
    15  H   -0.000064  -0.000000   0.000016  -0.000000   0.000000  -0.000000
    16  H    0.001312   0.000007  -0.000093   0.000000   0.000000   0.000000
    17  H    0.000959   0.000004   0.000208  -0.000001   0.000001  -0.000001
    18  H    0.000054   0.000008   0.000044  -0.000006   0.000005   0.000000
    19  H    0.565272  -0.002900  -0.000136   0.000008  -0.000004   0.000002
    20  H   -0.002900   0.566886  -0.000136   0.000063  -0.000105   0.001777
    21  H   -0.000136  -0.000136   0.495242   0.001360  -0.001925   0.000021
    22  H    0.000008   0.000063   0.001360   0.558201  -0.011869  -0.020350
    23  H   -0.000004  -0.000105  -0.001925  -0.011869   0.524121  -0.020284
    24  H    0.000002   0.001777   0.000021  -0.020350  -0.020284   0.616670
 Mulliken charges:
               1
     1  B    0.354595
     2  F   -0.205831
     3  F   -0.306851
     4  F   -0.310116
     5  F   -0.310684
     6  C   -0.067932
     7  C    0.053535
     8  N   -0.222664
     9  C    0.063123
    10  C    0.070908
    11  N   -0.234401
    12  C    0.217536
    13  C    0.082142
    14  H    0.096306
    15  H    0.052961
    16  H    0.029217
    17  H    0.054289
    18  H    0.081783
    19  H    0.066092
    20  H    0.064814
    21  H    0.121635
    22  H    0.081976
    23  H    0.114723
    24  H    0.052844
 Sum of Mulliken charges =  -0.00000
 Mulliken charges with hydrogens summed into heavy atoms:
               1
     1  B    0.354595
     2  F   -0.205831
     3  F   -0.306851
     4  F   -0.310116
     5  F   -0.310684
     6  C    0.110553
     7  C    0.189607
     8  N   -0.222664
     9  C    0.129215
    10  C    0.135722
    11  N   -0.234401
    12  C    0.339171
    13  C    0.331685
 Electronic spatial extent (au):  <R**2>=           2259.2496
 Charge=             -0.0000 electrons
 Dipole moment (field-independent basis, Debye):
    X=            -10.0711    Y=              1.9990    Z=             -1.0038  Tot=             10.3165
 Quadrupole moment (field-independent basis, Debye-Ang):
   XX=            -81.2042   YY=            -60.8484   ZZ=            -73.8953
   XY=              1.9835   XZ=             -3.5228   YZ=              2.1189
 Traceless Quadrupole moment (field-independent basis, Debye-Ang):
   XX=             -9.2215   YY=             11.1342   ZZ=             -1.9127
   XY=              1.9835   XZ=             -3.5228   YZ=              2.1189
 Octapole moment (field-independent basis, Debye-Ang**2):
  XXX=            -25.6802  YYY=             17.4776  ZZZ=             -4.3703  XYY=             -5.1251
  XXY=              0.0508  XXZ=              8.5859  XZZ=              6.3469  YZZ=              1.6910
  YYZ=              3.7559  XYZ=             -4.6713
 Hexadecapole moment (field-independent basis, Debye-Ang**3):
 XXXX=          -1407.3903 YYYY=           -993.4046 ZZZZ=           -258.2128 XXXY=             15.6813
 XXXZ=            -50.5553 YYYX=            -13.9982 YYYZ=             15.4166 ZZZX=             -0.3392
 ZZZY=              2.4627 XXYY=           -395.4847 XXZZ=           -267.8446 YYZZ=           -219.6910
 XXYZ=             18.6436 YYXZ=             -1.8020 ZZXY=             -0.7773
 N-N= 9.229156917163D+02 E-N=-3.654928820446D+03  KE= 7.622567786554D+02
   1 Symmetry operations used in ECPInt.
 ECPInt:  NShTT=    6216 NPrTT=   22568 LenC2=    6061 LenP2D=   16624.
 LDataN:  DoStor=T MaxTD1= 5 Len=  102
 Calling FoFJK, ICntrl=      2127 FMM=F ISym2X=0 I1Cent= 0 IOpClX= 0 NMat=1 NMatS=1 NMatT=0.
 ***** Axes restored to original set *****
 -------------------------------------------------------------------
 Center     Atomic                   Forces (Hartrees/Bohr)
 Number     Number              X              Y              Z
 -------------------------------------------------------------------
      1        5          -0.001597105   -0.001117556    0.000506359
      2        9           0.002232693    0.000691224   -0.001056487
      3        9           0.003783556    0.002452509    0.001376904
      4        9           0.003766611    0.001092069   -0.005442086
      5        9           0.003269025    0.000826787    0.001328936
      6        6          -0.001350510   -0.001465964    0.007928157
      7        6           0.003245127    0.002419976   -0.009378998
      8        7           0.002398792    0.002521564    0.008367216
      9        6           0.001649503   -0.003653078   -0.000268275
     10        6          -0.000040370    0.004546418    0.000627377
     11        7           0.005030555   -0.005066416    0.005463671
     12        6          -0.017242108   -0.004286066   -0.002720406
     13        6          -0.001551725    0.000843935   -0.002102307
     14        1           0.003721828   -0.001912150   -0.000841645
     15        1           0.000626775    0.006777796    0.000063510
     16        1          -0.004662919    0.001063286   -0.005482319
     17        1          -0.003391438    0.000018486    0.002690658
     18        1           0.000779911    0.000067188    0.002174441
     19        1          -0.005391793    0.003726893   -0.003034096
     20        1          -0.002795142   -0.005139093   -0.004092652
     21        1           0.006148259    0.001527967    0.002532860
     22        1           0.002415298   -0.001576804    0.002501724
     23        1           0.003254254   -0.000262784   -0.001237029
     24        1          -0.004299077   -0.004096188    0.000094487
 -------------------------------------------------------------------
 Cartesian Forces:  Max     0.017242108 RMS     0.003989955

 GradGradGradGradGradGradGradGradGradGradGradGradGradGradGradGradGradGrad
 Berny optimization.
 FormGI is forming the generalized inverse of G from B-inverse, IUseBI=4.
 Internal  Forces:  Max     0.014038062 RMS     0.003850865
 Search for a local minimum.
 Step number   1 out of a maximum of  134
 All quantities printed in internal units (Hartrees-Bohrs-Radians)
 Mixed Optimization -- RFO/linear search
 Second derivative matrix not updated -- first step.
 ITU=  0
     Eigenvalues ---    0.00417   0.00438   0.00899   0.00992   0.01740
     Eigenvalues ---    0.01793   0.01890   0.02052   0.02289   0.02312
     Eigenvalues ---    0.02463   0.02561   0.04211   0.04503   0.04644
     Eigenvalues ---    0.05471   0.05719   0.05876   0.07650   0.07711
     Eigenvalues ---    0.07922   0.09052   0.09102   0.12458   0.14379
     Eigenvalues ---    0.15507   0.16000   0.16000   0.16000   0.16000
     Eigenvalues ---    0.16000   0.16000   0.16000   0.16000   0.16000
     Eigenvalues ---    0.17955   0.18902   0.21952   0.21985   0.22740
     Eigenvalues ---    0.23381   0.24035   0.24182   0.29911   0.34361
     Eigenvalues ---    0.34526   0.34623   0.34861   0.34908   0.34937
     Eigenvalues ---    0.34989   0.35031   0.36454   0.36491   0.36503
     Eigenvalues ---    0.36970   0.37863   0.38164   0.40093   0.41897
     Eigenvalues ---    0.45097   0.47285   0.51366   0.52656   0.57215
     Eigenvalues ---    0.58349
 RFO step:  Lambda=-1.17573992D-02 EMin= 4.16985896D-03
 Linear search not attempted -- first point.
 Iteration  1 RMS(Cart)=  0.16103672 RMS(Int)=  0.00712400
 Iteration  2 RMS(Cart)=  0.00993030 RMS(Int)=  0.00045034
 Iteration  3 RMS(Cart)=  0.00006816 RMS(Int)=  0.00044915
 Iteration  4 RMS(Cart)=  0.00000002 RMS(Int)=  0.00044915
 Variable       Old X    -DE/DX   Delta X   Delta X   Delta X     New X
                                 (Linear)    (Quad)   (Total)
    R1        2.57276   0.00256   0.00000   0.00476   0.00476   2.57753
    R2        2.68031  -0.00047   0.00000   0.00388   0.00313   2.68345
    R3        2.69055   0.00084   0.00000   0.00194   0.00194   2.69249
    R4        2.68272   0.00004   0.00000   0.00598   0.00520   2.68792
    R5        4.06330   0.00629   0.00000   0.10336   0.10387   4.16717
    R6        4.02250   0.00635   0.00000   0.10183   0.10231   4.12481
    R7        2.88141   0.00021   0.00000   0.00067   0.00067   2.88208
    R8        2.05825   0.00424   0.00000   0.01176   0.01176   2.07001
    R9        2.05777   0.00665   0.00000   0.01841   0.01841   2.07618
   R10        2.05902   0.00710   0.00000   0.01969   0.01969   2.07871
   R11        2.75891   0.00614   0.00000   0.01610   0.01610   2.77501
   R12        2.06726   0.00382   0.00000   0.01076   0.01076   2.07802
   R13        2.06452   0.00213   0.00000   0.00598   0.00598   2.07050
   R14        2.59053   0.00468   0.00000   0.00873   0.00873   2.59926
   R15        2.51055   0.00517   0.00000   0.00862   0.00868   2.51923
   R16        2.56771   0.00256   0.00000   0.00436   0.00429   2.57200
   R17        2.03302   0.00722   0.00000   0.01915   0.01915   2.05217
   R18        2.58744   0.00549   0.00000   0.01056   0.01051   2.59795
   R19        2.03320   0.00714   0.00000   0.01895   0.01895   2.05215
   R20        2.51114   0.00647   0.00000   0.01095   0.01101   2.52215
   R21        2.74565   0.00392   0.00000   0.01003   0.01003   2.75568
   R22        2.03378   0.01404   0.00000   0.03731   0.03731   2.07109
   R23        2.05624   0.00346   0.00000   0.00956   0.00956   2.06580
   R24        2.06291   0.00304   0.00000   0.00850   0.00850   2.07141
   R25        2.05693   0.00562   0.00000   0.01554   0.01554   2.07248
    A1        1.95703   0.00151   0.00000  -0.00606  -0.00527   1.95175
    A2        1.94922  -0.00449   0.00000  -0.02525  -0.02523   1.92399
    A3        1.95513   0.00139   0.00000  -0.00676  -0.00599   1.94914
    A4        1.85852   0.00445   0.00000   0.01821   0.01821   1.87673
    A5        1.88006  -0.00750   0.00000   0.00278   0.00072   1.88078
    A6        1.85797   0.00483   0.00000   0.02028   0.02031   1.87827
    A7        1.43989   0.00618   0.00000   0.05840   0.05675   1.49664
    A8        1.45348   0.00611   0.00000   0.05896   0.05731   1.51079
    A9        1.90973  -0.00096   0.00000  -0.00449  -0.00448   1.90525
   A10        1.90508   0.00155   0.00000   0.00819   0.00818   1.91326
   A11        1.93216   0.00127   0.00000   0.00715   0.00715   1.93930
   A12        1.90610  -0.00023   0.00000  -0.00090  -0.00090   1.90521
   A13        1.90497   0.00010   0.00000   0.00221   0.00222   1.90719
   A14        1.90561  -0.00175   0.00000  -0.01227  -0.01229   1.89332
   A15        1.90488   0.00959   0.00000   0.04564   0.04551   1.95040
   A16        1.95065  -0.00181   0.00000  -0.00522  -0.00503   1.94562
   A17        1.92217  -0.00120   0.00000   0.00307   0.00294   1.92511
   A18        1.89777  -0.00404   0.00000  -0.02113  -0.02125   1.87652
   A19        1.86990  -0.00311   0.00000  -0.00964  -0.01011   1.85980
   A20        1.91648   0.00054   0.00000  -0.01279  -0.01300   1.90348
   A21        2.19915  -0.00264   0.00000  -0.00831  -0.00858   2.19058
   A22        2.15960   0.00518   0.00000   0.02250   0.02251   2.18210
   A23        1.90314  -0.00239   0.00000  -0.00894  -0.00904   1.89410
   A24        1.86445   0.00115   0.00000   0.00227   0.00214   1.86659
   A25        2.13358  -0.00051   0.00000  -0.00080  -0.00081   2.13277
   A26        2.28514  -0.00064   0.00000  -0.00155  -0.00154   2.28360
   A27        1.86468   0.00213   0.00000   0.00722   0.00698   1.87166
   A28        2.28614  -0.00116   0.00000  -0.00418  -0.00423   2.28191
   A29        2.13237  -0.00097   0.00000  -0.00310  -0.00315   2.12922
   A30        1.90426  -0.00377   0.00000  -0.01371  -0.01379   1.89047
   A31        2.20445  -0.00414   0.00000  -0.01522  -0.01526   2.18919
   A32        2.15127   0.00804   0.00000   0.03297   0.03295   2.18422
   A33        1.88795   0.00284   0.00000   0.01197   0.01130   1.89926
   A34        2.19952  -0.00485   0.00000  -0.02598  -0.02663   2.17289
   A35        2.19571   0.00200   0.00000   0.01390   0.01306   2.20877
   A36        1.90077   0.00221   0.00000   0.01163   0.01158   1.91235
   A37        1.88107   0.00242   0.00000   0.01622   0.01619   1.89725
   A38        1.91482  -0.00288   0.00000  -0.01766  -0.01762   1.89721
   A39        1.89858  -0.00171   0.00000  -0.00809  -0.00822   1.89037
   A40        1.93434  -0.00063   0.00000  -0.00783  -0.00781   1.92653
   A41        1.93316   0.00072   0.00000   0.00661   0.00668   1.93984
   A42        1.13049  -0.00556   0.00000  -0.02857  -0.02916   1.10132
   A43        1.98118   0.01300   0.00000   0.07206   0.07150   2.05268
   A44        1.97889   0.01156   0.00000   0.05561   0.05526   2.03415
    D1        2.88635  -0.00326   0.00000  -0.09346  -0.09385   2.79250
    D2       -1.26001  -0.00493   0.00000  -0.11624  -0.11622  -1.37624
    D3        0.72738  -0.00074   0.00000  -0.08292  -0.08339   0.64399
    D4       -2.89504   0.00314   0.00000   0.09352   0.09393  -2.80111
    D5       -0.73491   0.00069   0.00000   0.08340   0.08392  -0.65099
    D6        1.25285   0.00464   0.00000   0.11535   0.11537   1.36822
    D7       -0.48584  -0.00139   0.00000   0.05474   0.05482  -0.43102
    D8        1.36192   0.00538   0.00000   0.08322   0.08282   1.44474
    D9        0.48447   0.00133   0.00000  -0.05458  -0.05465   0.42982
   D10       -1.36676  -0.00763   0.00000  -0.10807  -0.10784  -1.47460
   D11       -0.99394  -0.00034   0.00000  -0.00166  -0.00173  -0.99566
   D12       -3.09370  -0.00052   0.00000  -0.00230  -0.00235  -3.09605
   D13        1.05424   0.00087   0.00000   0.01545   0.01556   1.06980
   D14       -3.07888  -0.00042   0.00000  -0.00280  -0.00286  -3.08174
   D15        1.10453  -0.00060   0.00000  -0.00344  -0.00348   1.10105
   D16       -1.03071   0.00079   0.00000   0.01431   0.01443  -1.01628
   D17        1.10628  -0.00004   0.00000   0.00270   0.00263   1.10891
   D18       -0.99349  -0.00022   0.00000   0.00206   0.00201  -0.99148
   D19       -3.12873   0.00117   0.00000   0.01981   0.01992  -3.10881
   D20       -1.16258   0.00084   0.00000   0.03166   0.03174  -1.13084
   D21        1.73422   0.00144   0.00000   0.06034   0.06040   1.79462
   D22        0.96937   0.00204   0.00000   0.04033   0.04014   1.00950
   D23       -2.41702   0.00263   0.00000   0.06901   0.06879  -2.34823
   D24        3.03967  -0.00121   0.00000   0.00851   0.00865   3.04832
   D25       -0.34671  -0.00061   0.00000   0.03719   0.03730  -0.30941
   D26        2.93834   0.00223   0.00000   0.05083   0.05017   2.98851
   D27       -0.20817   0.00145   0.00000   0.03510   0.03475  -0.17342
   D28        0.01161   0.00077   0.00000   0.02182   0.02160   0.03321
   D29       -3.13490  -0.00001   0.00000   0.00609   0.00618  -3.12872
   D30       -2.95422  -0.00176   0.00000  -0.06667  -0.06689  -3.02110
   D31        0.18908   0.00002   0.00000   0.00066  -0.00020   0.18888
   D32       -0.02156  -0.00148   0.00000  -0.04296  -0.04312  -0.06468
   D33        3.12174   0.00030   0.00000   0.02437   0.02357  -3.13787
   D34        0.00252   0.00019   0.00000   0.00695   0.00721   0.00973
   D35       -3.14129  -0.00106   0.00000  -0.02141  -0.02116   3.12073
   D36       -3.13356   0.00106   0.00000   0.02456   0.02445  -3.10911
   D37        0.00581  -0.00019   0.00000  -0.00381  -0.00392   0.00189
   D38       -0.01581  -0.00107   0.00000  -0.03333  -0.03338  -0.04919
   D39       -2.93208  -0.00280   0.00000  -0.05717  -0.05705  -2.98912
   D40        3.12776   0.00005   0.00000  -0.00803  -0.00803   3.11973
   D41        0.21150  -0.00168   0.00000  -0.03187  -0.03170   0.17980
   D42        0.02319   0.00158   0.00000   0.04736   0.04750   0.07069
   D43       -3.12010  -0.00020   0.00000  -0.01984  -0.02097  -3.14107
   D44        2.94776   0.00141   0.00000   0.06305   0.06358   3.01134
   D45       -0.19553  -0.00037   0.00000  -0.00414  -0.00489  -0.20042
   D46       -2.72934   0.00060   0.00000   0.01229   0.01249  -2.71685
   D47        1.49694   0.00008   0.00000   0.00655   0.00662   1.50356
   D48       -0.60939  -0.00058   0.00000  -0.00098  -0.00081  -0.61020
   D49        0.66749   0.00035   0.00000  -0.00796  -0.00805   0.65944
   D50       -1.38941  -0.00017   0.00000  -0.01370  -0.01392  -1.40334
   D51        2.78744  -0.00083   0.00000  -0.02123  -0.02135   2.76609
   D52       -2.27850  -0.00086   0.00000   0.01094   0.01011  -2.26839
   D53       -1.03162   0.00050   0.00000   0.01833   0.01944  -1.01218
   D54        0.86509   0.00123   0.00000   0.08983   0.08872   0.95382
   D55        2.11197   0.00258   0.00000   0.09722   0.09805   2.21002
         Item               Value     Threshold  Converged?
 Maximum Force            0.014038     0.000015     NO 
 RMS     Force            0.003851     0.000010     NO 
 Maximum Displacement     0.881996     0.000060     NO 
 RMS     Displacement     0.166170     0.000040     NO 
 Predicted change in Energy=-7.030354D-03
 GradGradGradGradGradGradGradGradGradGradGradGradGradGradGradGradGradGrad

                          Input orientation:                          
 ---------------------------------------------------------------------
 Center     Atomic      Atomic             Coordinates (Angstroms)
 Number     Number       Type             X           Y           Z
 ---------------------------------------------------------------------
      1          5           0        2.190549    0.298606   -0.084284
      2          9           0        3.453593    0.673686   -0.437050
      3          9           0        2.181599   -0.942741    0.605229
      4          9           0        1.378052    0.150467   -1.245305
      5          9           0        1.570372    1.265423    0.754663
      6          6           0       -1.081944    2.661544   -0.544849
      7          6           0       -1.455903    1.858518    0.696651
      8          7           0       -1.576765    0.425092    0.401533
      9          6           0       -2.514344   -0.143350   -0.428973
     10          6           0       -2.165539   -1.449560   -0.585795
     11          7           0       -1.030093   -1.660408    0.160071
     12          6           0       -0.663835   -0.498032    0.704193
     13          6           0       -0.215986   -2.870023    0.137003
     14          1           0       -0.146894    2.268903   -0.958882
     15          1           0       -0.940983    3.716707   -0.273124
     16          1           0       -1.871119    2.600646   -1.308724
     17          1           0       -2.415496    2.191797    1.117738
     18          1           0       -0.676835    1.955366    1.460944
     19          1           0       -3.356169    0.419014   -0.821901
     20          1           0       -2.643834   -2.248780   -1.144160
     21          1           0        0.201504   -0.325526    1.354256
     22          1           0        0.331244   -2.961110    1.078952
     23          1           0        0.512498   -2.787964   -0.677928
     24          1           0       -0.874991   -3.734738   -0.007049
 ---------------------------------------------------------------------
                    Distance matrix (angstroms):
                    1          2          3          4          5
     1  B    0.000000
     2  F    1.363969   0.000000
     3  F    1.420018   2.305895   0.000000
     4  F    1.424804   2.287991   2.294617   0.000000
     5  F    1.422387   2.305831   2.296065   2.297822   0.000000
     6  C    4.062610   4.953211   4.996425   3.584372   3.266904
     7  C    4.042251   5.176124   4.592040   3.836657   3.084391
     8  N    3.800615   5.105833   4.004718   3.393883   3.276481
     9  C    4.738159   6.023611   4.874473   3.987916   4.480015
    10  C    4.720498   6.008739   4.535749   3.943613   4.808845
    11  N    3.777563   5.089990   3.320870   3.324683   3.959349
    12  C    3.066567   4.430415   2.881676   2.896618   2.846752
    13  C    3.985046   5.133539   3.111602   3.684440   4.546921
    14  H    3.179722   3.972472   4.264151   2.625884   2.625302
    15  H    4.639565   5.347817   5.677366   4.363614   3.656780
    16  H    4.826571   5.729358   5.713434   4.069952   4.228977
    17  H    5.122956   6.258453   5.587600   4.913452   4.108179
    18  H    3.654377   4.722873   4.159557   3.847597   2.454545
    19  H    5.596843   6.825381   5.878601   4.760697   5.241447
    20  H    5.566307   6.798488   5.296311   4.684249   5.806435
    21  H    2.532832   3.844904   2.205169   2.892845   2.182757
    22  H    3.928852   5.025840   2.778856   4.022423   4.416353
    23  H    3.563030   4.548745   2.799507   3.115362   4.427342
    24  H    5.066691   6.193201   4.184838   4.658787   5.617972
                    6          7          8          9         10
     6  C    0.000000
     7  C    1.525129   0.000000
     8  N    2.478347   1.468472   0.000000
     9  C    3.151608   2.528795   1.375471   0.000000
    10  C    4.251710   3.618236   2.199044   1.361045   0.000000
    11  N    4.379369   3.584979   2.169439   2.202598   1.374776
    12  C    3.423133   2.486113   1.333118   2.198692   2.196495
    13  C    5.640305   4.920335   3.574840   3.610751   2.518116
    14  H    1.095403   2.150049   2.700907   3.421198   4.247481
    15  H    1.098669   2.158349   3.419665   4.171306   5.318611
    16  H    1.100005   2.178230   2.782922   2.952493   4.124740
    17  H    2.182480   1.099639   2.082706   2.802677   4.027901
    18  H    2.164719   1.095660   2.067357   3.369397   4.242511
    19  H    3.205901   2.826514   2.159422   1.085963   2.228209
    20  H    5.187481   4.655069   3.267629   2.227352   1.085951
    21  H    3.765159   2.819484   2.152522   3.254063   3.260391
    22  H    6.020637   5.154499   3.945347   4.279133   3.360073
    23  H    5.679533   5.230092   3.981706   4.027124   2.995278
    24  H    6.422187   5.667201   4.238351   3.970336   2.687471
                   11         12         13         14         15
    11  N    0.000000
    12  C    1.334666   0.000000
    13  C    1.458242   2.479640   0.000000
    14  H    4.179903   3.269400   5.254931   0.000000
    15  H    5.395273   4.335434   6.639190   1.788010   0.000000
    16  H    4.584896   3.887310   5.895576   1.790362   1.784156
    17  H    4.204278   3.236436   5.605507   3.076500   2.536540
    18  H    3.858871   2.567489   5.024896   2.496938   2.485777
    19  H    3.270917   3.227786   4.647366   3.706791   4.124204
    20  H    2.156701   3.225202   2.814563   5.165124   6.264619
    21  H    2.173666   1.095971   2.851398   3.493287   4.504807
    22  H    2.095091   2.682793   1.093173   5.633331   6.931083
    23  H    2.086435   2.921952   1.096145   5.107410   6.677366
    24  H    2.086823   3.320650   1.096708   6.122076   7.456486
                   16         17         18         19         20
    16  H    0.000000
    17  H    2.520162   0.000000
    18  H    3.084438   1.787913   0.000000
    19  H    2.683634   2.791026   3.840649   0.000000
    20  H    4.913360   4.988692   5.322640   2.780000   0.000000
    21  H    4.466510   3.638894   2.446493   4.236395   4.246992
    22  H    6.440848   5.839395   5.033276   5.351215   3.781631
    23  H    5.925930   6.049428   5.337458   5.027128   3.235819
    24  H    6.543984   6.225923   5.879757   4.906515   2.574859
                   21         22         23         24
    21  H    0.000000
    22  H    2.653098   0.000000
    23  H    3.207817   1.774672   0.000000
    24  H    3.825535   1.798027   1.808752   0.000000
 Stoichiometry    C6H11BF4N2
 Framework group  C1[X(C6H11BF4N2)]
 Deg. of freedom    66
 Full point group                 C1      NOp   1
 Largest Abelian subgroup         C1      NOp   1
 Largest concise Abelian subgroup C1      NOp   1
                         Standard orientation:                         
 ---------------------------------------------------------------------
 Center     Atomic      Atomic             Coordinates (Angstroms)
 Number     Number       Type             X           Y           Z
 ---------------------------------------------------------------------
      1          5           0        2.116335    0.007081    0.090227
      2          9           0        3.418456   -0.195310    0.442263
      3          9           0        1.937804    1.244055   -0.583918
      4          9           0        1.289581    0.027440    1.250455
      5          9           0        1.636096   -1.025082   -0.762530
      6          6           0       -0.800948   -2.788792    0.511365
      7          6           0       -1.280013   -2.029111   -0.721275
      8          7           0       -1.597160   -0.629749   -0.408844
      9          6           0       -2.605122   -0.206109    0.425699
     10          6           0       -2.439383    1.133549    0.599736
     11          7           0       -1.342662    1.507863   -0.139928
     12          6           0       -0.819359    0.413833   -0.697230
     13          6           0       -0.702576    2.817486   -0.099379
     14          1           0        0.070684   -2.276657    0.933128
     15          1           0       -0.515918   -3.811045    0.227061
     16          1           0       -1.592061   -2.846603    1.273473
     17          1           0       -2.184104   -2.485736   -1.149435
     18          1           0       -0.493969   -2.008290   -1.484277
     19          1           0       -3.362204   -0.883755    0.809025
     20          1           0       -3.023764    1.852321    1.166443
     21          1           0        0.062378    0.370128   -1.346677
     22          1           0       -0.171754    2.994835   -1.038422
     23          1           0        0.029143    2.825998    0.716740
     24          1           0       -1.474378    3.581542    0.053295
 ---------------------------------------------------------------------
 Rotational constants (GHZ):           1.0045586           0.6353415           0.4494122
 Standard basis: def2SVP (5D, 7F)
 There are   250 symmetry adapted cartesian basis functions of A   symmetry.
 There are   237 symmetry adapted basis functions of A   symmetry.
   237 basis functions,   402 primitive gaussians,   250 cartesian basis functions
    51 alpha electrons       51 beta electrons
       nuclear repulsion energy       893.8320684283 Hartrees.
 NAtoms=   24 NActive=   24 NUniq=   24 SFac= 1.00D+00 NAtFMM=   60 NAOKFM=F Big=F
 Integral buffers will be    131072 words long.
 Raffenetti 2 integral format.
 Two-electron integral symmetry is turned on.
 Nuclear repulsion after empirical dispersion term =      893.8143556360 Hartrees.
 Standard density basis: W06 (5D, 7F)
   758 Density fitting functions
 There are   758 symmetry adapted density basis functions of A   symmetry.
 One-electron integrals computed using PRISM.
   1 Symmetry operations used in ECPInt.
 ECPInt:  NShTT=    6216 NPrTT=   22568 LenC2=    6024 LenP2D=   16326.
 LDataN:  DoStor=T MaxTD1= 4 Len=   56
 NBasis=   237 RedAO= T EigKep=  1.49D-03  NBF=   237
 NBsUse=   237 1.00D-06 EigRej= -1.00D+00 NBFU=   237
 Initial guess from the checkpoint file:  "c1c2cim_bf4.chk"
 B after Tr=    -0.000000    0.000000    0.000000
         Rot=    0.998879   -0.008785   -0.009297   -0.045575 Ang=  -5.43 deg.
 ExpMin= 8.36D-02 ExpMax= 2.89D+03 ExpMxC= 4.35D+02 IAcc=3 IRadAn=         5 AccDes= 0.00D+00
 Harris functional with IExCor= 4639 and IRadAn=       5 diagonalized for initial guess.
 HarFok:  IExCor= 4639 AccDes= 0.00D+00 IRadAn=         5 IDoV= 1 UseB2=F ITyADJ=14
 ICtDFT=  3500011 ScaDFX=  1.000000  1.000000  1.000000  1.000000
 FoFCou: FMM=F IPFlag=           0 FMFlag=      100000 FMFlg1=           0
         NFxFlg=           0 DoJE=T BraDBF=F KetDBF=T FulRan=T
         wScrn=  0.000000 ICntrl=       500 IOpCl=  0 I1Cent=   200000004 NGrid=           0
         NMat0=    1 NMatS0=      1 NMatT0=    0 NMatD0=    1 NMtDS0=    0 NMtDT0=    0
 Petite list used in FoFCou.
 Requested convergence on RMS density matrix=1.00D-08 within 128 cycles.
 Requested convergence on MAX density matrix=1.00D-06.
 Requested convergence on             energy=1.00D-06.
 No special actions if energy rises.
 Integral accuracy reduced to 1.0D-05 until final iterations.
 Initial convergence to 1.0D-05 achieved.  Increase integral accuracy.
 SCF Done:  E(RwB97XD) =  -768.426128309     A.U. after   14 cycles
            NFock= 14  Conv=0.48D-08     -V/T= 2.0085
   1 Symmetry operations used in ECPInt.
 ECPInt:  NShTT=    6216 NPrTT=   22568 LenC2=    6024 LenP2D=   16326.
 LDataN:  DoStor=T MaxTD1= 5 Len=  102
 Calling FoFJK, ICntrl=      2127 FMM=F ISym2X=0 I1Cent= 0 IOpClX= 0 NMat=1 NMatS=1 NMatT=0.
 ***** Axes restored to original set *****
 -------------------------------------------------------------------
 Center     Atomic                   Forces (Hartrees/Bohr)
 Number     Number              X              Y              Z
 -------------------------------------------------------------------
      1        5          -0.004287894   -0.002723269   -0.008895637
      2        9           0.004220036    0.001465413    0.001972915
      3        9          -0.002498658    0.000798196    0.001602268
      4        9          -0.003203378   -0.000022151    0.006616042
      5        9          -0.001397359   -0.000541022    0.001532325
      6        6          -0.000972134   -0.004067412    0.002164989
      7        6          -0.000022956    0.002472262   -0.001105650
      8        7           0.006476231    0.000535972   -0.005051334
      9        6          -0.002025342   -0.001771790   -0.000030165
     10        6          -0.004906672   -0.000467118    0.000530908
     11        7           0.006931604    0.005389981   -0.003075168
     12        6          -0.003855240   -0.000124139    0.011425577
     13        6           0.000434636    0.001529906   -0.000548558
     14        1           0.002461754   -0.000747697   -0.000420425
     15        1          -0.000004865   -0.000509809    0.000214252
     16        1          -0.000037191    0.000759739   -0.000387882
     17        1          -0.000122215   -0.000811484    0.001229316
     18        1           0.000736269   -0.000077984   -0.000147416
     19        1           0.000495248   -0.000113907   -0.000558364
     20        1           0.000201433    0.000258836   -0.000296745
     21        1          -0.000160621   -0.001682857   -0.007796971
     22        1           0.000278091    0.000307676    0.001002022
     23        1           0.000818351   -0.000072942   -0.000414321
     24        1           0.000440871    0.000215599    0.000438020
 -------------------------------------------------------------------
 Cartesian Forces:  Max     0.011425577 RMS     0.002977222

 GradGradGradGradGradGradGradGradGradGradGradGradGradGradGradGradGradGrad
 Berny optimization.
 Using GEDIIS/GDIIS optimizer.
 FormGI is forming the generalized inverse of G from B-inverse, IUseBI=4.
 Internal  Forces:  Max     0.009157015 RMS     0.002429870
 Search for a local minimum.
 Step number   2 out of a maximum of  134
 All quantities printed in internal units (Hartrees-Bohrs-Radians)
 Mixed Optimization -- RFO/linear search
 Update second derivatives using D2CorX and points    1    2
 DE= -5.34D-04 DEPred=-7.03D-03 R= 7.60D-02
 Trust test= 7.60D-02 RLast= 4.35D-01 DXMaxT set to 1.50D-01
 ITU= -1  0
 Use linear search instead of GDIIS.
     Eigenvalues ---    0.00414   0.00438   0.00915   0.00992   0.01702
     Eigenvalues ---    0.01806   0.01868   0.02286   0.02308   0.02396
     Eigenvalues ---    0.02463   0.02805   0.04335   0.04629   0.05018
     Eigenvalues ---    0.05502   0.05666   0.05858   0.07545   0.07691
     Eigenvalues ---    0.07798   0.09126   0.09411   0.12719   0.14251
     Eigenvalues ---    0.14908   0.15904   0.15983   0.15988   0.15995
     Eigenvalues ---    0.16000   0.16000   0.16000   0.16000   0.16129
     Eigenvalues ---    0.18082   0.18815   0.22004   0.22733   0.22799
     Eigenvalues ---    0.23305   0.24173   0.26086   0.30048   0.33603
     Eigenvalues ---    0.34413   0.34541   0.34659   0.34886   0.34952
     Eigenvalues ---    0.34986   0.35029   0.36245   0.36498   0.36914
     Eigenvalues ---    0.37791   0.37862   0.38627   0.40303   0.42097
     Eigenvalues ---    0.45215   0.47655   0.51121   0.52661   0.58267
     Eigenvalues ---    0.58356
 RFO step:  Lambda=-1.98584359D-03 EMin= 4.13877413D-03
 Quartic linear search produced a step of -0.52448.
 Iteration  1 RMS(Cart)=  0.11546869 RMS(Int)=  0.00400714
 Iteration  2 RMS(Cart)=  0.00564522 RMS(Int)=  0.00037079
 Iteration  3 RMS(Cart)=  0.00001498 RMS(Int)=  0.00037071
 Iteration  4 RMS(Cart)=  0.00000000 RMS(Int)=  0.00037071
 Variable       Old X    -DE/DX   Delta X   Delta X   Delta X     New X
                                 (Linear)    (Quad)   (Total)
    R1        2.57753   0.00380  -0.00250   0.00678   0.00428   2.58181
    R2        2.68345   0.00045  -0.00164   0.00009  -0.00129   2.68215
    R3        2.69249  -0.00356  -0.00102  -0.00270  -0.00372   2.68877
    R4        2.68792   0.00063  -0.00273   0.00090  -0.00152   2.68641
    R5        4.16717  -0.00466  -0.05448   0.00878  -0.04585   4.12132
    R6        4.12481  -0.00386  -0.05366   0.01859  -0.03529   4.08952
    R7        2.88208  -0.00333  -0.00035  -0.00483  -0.00518   2.87689
    R8        2.07001   0.00253  -0.00617   0.01157   0.00540   2.07541
    R9        2.07618  -0.00044  -0.00966   0.01211   0.00245   2.07864
   R10        2.07871   0.00026  -0.01033   0.01394   0.00361   2.08232
   R11        2.77501  -0.00244  -0.00844   0.00800  -0.00044   2.77457
   R12        2.07802   0.00033  -0.00564   0.00788   0.00224   2.08026
   R13        2.07050   0.00041  -0.00314   0.00469   0.00156   2.07206
   R14        2.59926   0.00256  -0.00458   0.00877   0.00418   2.60345
   R15        2.51923  -0.00628  -0.00455   0.00060  -0.00376   2.51546
   R16        2.57200  -0.00032  -0.00225   0.00343   0.00099   2.57299
   R17        2.05217  -0.00024  -0.01005   0.01293   0.00288   2.05506
   R18        2.59795   0.00316  -0.00551   0.01049   0.00487   2.60282
   R19        2.05215  -0.00013  -0.00994   0.01294   0.00300   2.05515
   R20        2.52215  -0.00649  -0.00578   0.00202  -0.00363   2.51852
   R21        2.75568  -0.00055  -0.00526   0.00626   0.00100   2.75668
   R22        2.07109  -0.00916  -0.01957   0.01383  -0.00574   2.06535
   R23        2.06580   0.00098  -0.00501   0.00793   0.00291   2.06871
   R24        2.07141   0.00085  -0.00446   0.00703   0.00257   2.07399
   R25        2.07248  -0.00049  -0.00815   0.01006   0.00191   2.07438
    A1        1.95175  -0.00105   0.00276   0.00097   0.00382   1.95558
    A2        1.92399   0.00601   0.01323   0.00554   0.01869   1.94268
    A3        1.94914  -0.00199   0.00314  -0.00183   0.00135   1.95049
    A4        1.87673  -0.00138  -0.00955   0.01275   0.00298   1.87972
    A5        1.88078   0.00232  -0.00038  -0.02400  -0.02450   1.85629
    A6        1.87827  -0.00411  -0.01065   0.00683  -0.00388   1.87439
    A7        1.49664  -0.00265  -0.02976   0.00451  -0.02617   1.47047
    A8        1.51079  -0.00300  -0.03006   0.00085  -0.03005   1.48074
    A9        1.90525  -0.00049   0.00235  -0.00452  -0.00218   1.90307
   A10        1.91326  -0.00073  -0.00429   0.00238  -0.00191   1.91135
   A11        1.93930   0.00127  -0.00375   0.00940   0.00565   1.94495
   A12        1.90521   0.00014   0.00047  -0.00214  -0.00169   1.90352
   A13        1.90719   0.00009  -0.00116   0.00330   0.00213   1.90932
   A14        1.89332  -0.00028   0.00645  -0.00855  -0.00210   1.89123
   A15        1.95040  -0.00450  -0.02387   0.01922  -0.00463   1.94577
   A16        1.94562   0.00334   0.00264   0.01117   0.01372   1.95934
   A17        1.92511  -0.00036  -0.00154  -0.00608  -0.00760   1.91751
   A18        1.87652   0.00083   0.01114  -0.00957   0.00164   1.87816
   A19        1.85980   0.00137   0.00530  -0.01106  -0.00558   1.85422
   A20        1.90348  -0.00072   0.00682  -0.00515   0.00180   1.90529
   A21        2.19058   0.00426   0.00450   0.00134   0.00585   2.19642
   A22        2.18210  -0.00508  -0.01181   0.00402  -0.00787   2.17424
   A23        1.89410   0.00078   0.00474  -0.00563  -0.00076   1.89334
   A24        1.86659  -0.00141  -0.00112   0.00145   0.00002   1.86662
   A25        2.13277   0.00090   0.00042   0.00020   0.00068   2.13344
   A26        2.28360   0.00054   0.00081  -0.00134  -0.00048   2.28312
   A27        1.87166  -0.00215  -0.00366   0.00305  -0.00112   1.87053
   A28        2.28191   0.00101   0.00222  -0.00176   0.00043   2.28234
   A29        2.12922   0.00119   0.00165  -0.00058   0.00104   2.13026
   A30        1.89047   0.00104   0.00723  -0.00740  -0.00016   1.89031
   A31        2.18919   0.00352   0.00800  -0.00350   0.00459   2.19378
   A32        2.18422  -0.00447  -0.01728   0.01348  -0.00381   2.18041
   A33        1.89926   0.00197  -0.00593   0.01226   0.00470   1.90396
   A34        2.17289   0.00144   0.01397  -0.00961   0.00242   2.17531
   A35        2.20877  -0.00317  -0.00685   0.00280  -0.00600   2.20277
   A36        1.91235  -0.00099  -0.00607   0.00428  -0.00176   1.91059
   A37        1.89725   0.00055  -0.00849   0.01227   0.00379   1.90104
   A38        1.89721   0.00046   0.00924  -0.00982  -0.00061   1.89660
   A39        1.89037   0.00000   0.00431  -0.00611  -0.00173   1.88864
   A40        1.92653  -0.00003   0.00410  -0.00536  -0.00128   1.92526
   A41        1.93984  -0.00001  -0.00350   0.00516   0.00162   1.94145
   A42        1.10132   0.00255   0.01530  -0.01456   0.00033   1.10165
   A43        2.05268  -0.00625  -0.03750   0.02427  -0.01267   2.04001
   A44        2.03415  -0.00467  -0.02898   0.02442  -0.00413   2.03002
    D1        2.79250  -0.00039   0.04922   0.01446   0.06365   2.85615
    D2       -1.37624   0.00550   0.06096   0.03031   0.09133  -1.28490
    D3        0.64399   0.00119   0.04374   0.03262   0.07614   0.72013
    D4       -2.80111  -0.00005  -0.04927  -0.01509  -0.06423  -2.86533
    D5       -0.65099  -0.00105  -0.04401  -0.03149  -0.07511  -0.72610
    D6        1.36822  -0.00357  -0.06051  -0.02531  -0.08567   1.28255
    D7       -0.43102  -0.00033  -0.02875  -0.02499  -0.05378  -0.48480
    D8        1.44474  -0.00259  -0.04344  -0.01058  -0.05386   1.39088
    D9        0.42982   0.00029   0.02867   0.02491   0.05363   0.48345
   D10       -1.47460   0.00503   0.05656   0.01040   0.06689  -1.40771
   D11       -0.99566   0.00017   0.00091  -0.00317  -0.00224  -0.99791
   D12       -3.09605  -0.00011   0.00123  -0.01193  -0.01068  -3.10673
   D13        1.06980  -0.00120  -0.00816  -0.00875  -0.01695   1.05285
   D14       -3.08174   0.00074   0.00150   0.00076   0.00227  -3.07947
   D15        1.10105   0.00046   0.00183  -0.00800  -0.00616   1.09489
   D16       -1.01628  -0.00063  -0.00757  -0.00482  -0.01243  -1.02871
   D17        1.10891   0.00076  -0.00138   0.00391   0.00256   1.11146
   D18       -0.99148   0.00048  -0.00105  -0.00485  -0.00588  -0.99736
   D19       -3.10881  -0.00061  -0.01045  -0.00167  -0.01215  -3.12096
   D20       -1.13084  -0.00196  -0.01665  -0.04802  -0.06467  -1.19551
   D21        1.79462  -0.00214  -0.03168  -0.05045  -0.08218   1.71244
   D22        1.00950  -0.00007  -0.02105  -0.02843  -0.04935   0.96015
[...]
 .00032955,-0.00055031,0.00087476,-0.00036314,-0.17815194,-0.00380782,-
 0.13709705,0.00895877,-0.00024931,0.01173731,0.00017783,0.00119407,-0.
 00048949,-0.00006575,-0.00002739,-0.00002040,-0.00023046,0.00007822,0.
 00005701,0.00020404,0.00026036,0.00007969,0.00020882,-0.00040078,-0.00
 005432,0.00000447,0.00002256,0.00001292,-0.01320228,-0.00387990,-0.020
 70361,-0.00329678,0.00135237,-0.00171879,0.18484838,-0.00012312,0.0003
 4460,0.00026280,0.00002112,-0.00002947,-0.00004347,-0.00002834,-0.0000
 8028,-0.00002787,-0.00015992,-0.00017011,-0.00021737,0.00033135,-0.000
 21429,0.00005768,-0.00381547,-0.04810779,-0.00527685,0.01246281,-0.001
 41937,0.01330596,0.00108104,0.00202938,0.00007851,-0.00014089,-0.00025
 160,0.00000658,0.00011318,-0.00027799,-0.00016221,-0.00018953,0.000211
 67,-0.00009870,0.00022346,-0.00025399,-0.00008042,0.00001720,-0.000085
 29,0.00001318,0.00669294,0.00040552,0.01040477,-0.02052351,0.00222420,
 -0.02165477,0.00608606,0.04652167,0.00002997,-0.00004221,-0.00036789,-
 0.00003851,-0.00000452,0.00006820,-0.00003353,0.00001980,0.00006621,0.
 00005824,-0.00008692,0.00007652,-0.00014801,0.00000754,0.00043566,-0.1
 3512645,-0.00390640,-0.19181029,-0.01876747,-0.00204516,-0.01973229,0.
 00030822,-0.00096803,0.00097317,-0.00047636,0.00009702,-0.00011934,-0.
 00014657,0.00050946,0.00021241,0.00040241,0.00003620,0.00033540,0.0001
 1117,-0.00032037,-0.00002923,0.00003802,0.00004292,0.00000496,0.007684
 26,0.00106134,0.00912021,-0.00378014,0.00130568,-0.00485919,0.14677100
 ,0.00131550,0.20791901,0.00066242,-0.00085367,-0.00037119,-0.00028058,
 0.00005944,0.00011109,-0.00005778,0.00034420,-0.00007551,-0.00009351,0
 .00025707,0.00004383,-0.00096503,0.00066804,0.00033121,-0.00604878,0.0
 0233748,0.00139707,-0.26881558,0.07896073,0.07959560,0.00691529,-0.004
 02104,-0.00365247,0.00078383,-0.00017092,-0.00011398,0.00034705,0.0002
 8215,0.00006847,0.00024120,-0.00061444,-0.00009681,-0.00005078,-0.0003
 5884,0.00003487,-0.00010157,-0.00008100,0.00014225,0.00088104,-0.00138
 554,0.00134605,-0.00002390,-0.00028634,0.00022496,0.00101408,-0.000225
 06,0.00008550,0.27982544,0.00001255,-0.00080473,0.00010711,-0.00001328
 ,0.00012650,-0.00001056,0.00020340,0.00032195,-0.00013429,0.00007825,0
 .00043891,-0.00016978,-0.00024929,0.00051542,0.00002547,-0.01670404,0.
 00797871,0.00554659,0.06855014,-0.07300929,-0.02835013,0.03318770,-0.0
 2415420,-0.01023120,0.00110064,0.00189268,0.00150434,0.00080037,-0.000
 78842,0.00040519,-0.00012455,-0.00270162,-0.00012963,-0.00253359,-0.00
 077539,-0.00388823,-0.00052252,-0.00001412,0.00017612,-0.00059911,-0.0
 0184666,0.00343578,0.00024605,0.00026637,-0.00061212,0.00072810,0.0004
 0686,-0.00033540,-0.08122580,0.09089966,0.00007592,-0.00045096,-0.0009
 0961,-0.00010508,0.00002397,0.00016920,-0.00001572,0.00011634,0.000093
 82,0.00024019,-0.00013549,0.00031554,-0.00093322,0.00052701,0.00065416
 ,0.02403148,-0.00848214,-0.00820728,0.07819054,-0.02884095,-0.08125532
 ,0.00585583,-0.00558909,-0.00195545,0.00072875,0.00029567,0.00073219,0
 .00049414,-0.00038949,0.00010804,-0.00036915,-0.00062121,-0.00060077,-
 0.00106983,0.00091344,-0.00048831,-0.00012218,-0.00003722,0.00005843,0
 .00108140,0.00370936,-0.00361658,-0.00036966,0.00006957,0.00079873,-0.
 00043815,-0.00096087,0.00086189,-0.08884953,0.03147918,0.08299002,-0.0
 0124420,0.00281691,0.00257194,0.00063333,-0.00023369,-0.00047860,0.000
 00289,-0.00091426,-0.00002317,-0.00038505,-0.00041836,-0.00077759,-0.0
 0171281,-0.00171521,-0.00171163,0.00907874,0.00107141,0.00933397,-0.18
 508320,-0.01295129,-0.14649427,-0.00162905,0.00006828,-0.00011853,0.00
 053598,-0.00004176,0.00001109,-0.00004197,0.00027074,-0.00016696,-0.00
 012160,0.00023318,0.00044893,0.00140733,0.00062185,0.00039625,0.000061
 73,-0.00004612,0.00002213,0.00053158,0.00033805,0.00025497,0.00052866,
 0.00019992,-0.00057851,-0.00011519,-0.00137591,0.00270946,-0.01400605,
 -0.00252865,-0.01822783,0.19079850,0.00032694,-0.00037849,-0.00036140,
 -0.00019799,0.00001950,0.00010147,-0.00006885,0.00007181,0.00007557,0.
 00004116,0.00016064,0.00007767,0.00012166,-0.00017530,0.00035276,0.012
 04394,0.00104883,0.01348703,-0.00105544,-0.05025439,-0.00551308,-0.029
 69142,-0.01207219,-0.03014897,0.00298722,-0.00446303,0.00004368,-0.001
 15892,-0.00099404,-0.00098187,-0.00018991,-0.00011005,-0.00015338,-0.0
 0205110,0.00110019,-0.00077400,-0.00004550,0.00010453,0.00011434,-0.00
 024612,0.00038881,-0.00060667,0.00034426,0.00018588,0.00001871,-0.0018
 1792,-0.00115576,0.00321370,0.00633377,0.00153024,0.00875080,0.0136514
 2,0.06627586,0.00099680,-0.00184819,-0.00161877,-0.00048143,0.00015842
 ,0.00034555,-0.00004893,0.00065565,-0.00003900,0.00015183,0.00027447,0
 .00049491,-0.00215250,0.00160622,0.00098276,-0.01664981,-0.00012214,-0
 .01890785,-0.14105324,-0.01539085,-0.19846586,-0.00456299,-0.00179344,
 -0.00563469,0.00075728,-0.00021712,0.00091409,-0.00014757,-0.00016408,
 0.00016946,-0.00006004,-0.00018955,-0.00013661,-0.00038877,0.00107090,
 0.00081167,0.00000797,0.00003573,-0.00002658,-0.00040184,-0.00049670,0
 .00041079,-0.00010210,-0.00007134,0.00102835,0.00213490,0.00278763,-0.
 00303277,0.00926584,0.00186551,0.01034695,0.15270449,0.01235359,0.2123
 8810,-0.00008015,0.00011052,-0.00019181,0.00003652,-0.00001397,0.00002
 427,-0.00002804,-0.00005291,0.00009817,0.00007875,-0.00004738,0.000145
 60,0.00002531,-0.00008181,0.00005868,-0.00019970,-0.00001691,-0.000143
 18,0.00028779,0.00092519,0.00083844,-0.01188485,0.01109052,-0.00257949
 ,-0.23628986,0.13066276,-0.09816968,0.00191033,-0.00175305,-0.00031002
 ,0.00272915,0.00028427,-0.00178966,-0.00016971,-0.00254007,-0.00317179
 ,0.00068875,0.00032870,-0.00040242,-0.00001536,0.00004866,-0.00001457,
 0.00014123,0.00000948,0.00020508,-0.00004026,-0.00041038,0.00024185,-0
 .00013476,-0.00021475,-0.00013615,0.00008190,-0.00002797,0.00005990,0.
 24351230,0.00007899,0.00010431,-0.00006522,-0.00001466,-0.00002146,0.0
 0001002,-0.00010586,0.00002979,0.00007060,-0.00003693,-0.00004884,0.00
 006216,-0.00000955,-0.00010535,0.00001812,-0.00017448,-0.00015482,-0.0
 0016666,-0.00011597,0.00112183,0.00103123,-0.01554410,0.01250261,-0.00
 554531,0.13721688,-0.14717584,0.05284499,0.01693031,0.00104076,0.01145
 072,0.00221545,-0.00467766,-0.00191830,-0.00220123,-0.00245086,-0.0034
 2638,0.00092395,0.00089146,0.00038292,0.00004185,0.00007021,0.00003972
 ,0.00006280,-0.00002066,0.00005376,-0.00023702,-0.00022857,0.00016894,
 0.00029724,0.00007605,-0.00016765,0.00010587,-0.00001606,-0.00000009,-
 0.13864251,0.13844142,0.00002782,0.00008078,-0.00000630,-0.00000205,-0
 .00000871,-0.00000835,-0.00015853,0.00004047,0.00002169,0.00003578,0.0
 0002383,-0.00005654,0.00002671,-0.00007183,-0.00002458,0.00013048,-0.0
 0022359,0.00017120,0.00059269,0.00127159,-0.00017291,-0.01250026,0.012
 15950,-0.00668164,-0.09577384,0.04954732,-0.07567118,0.00609094,-0.001
 72766,0.00520332,-0.00066025,-0.00283017,0.00393154,-0.00287839,-0.004
 23086,0.00005704,-0.00048110,-0.00011525,0.00106312,0.00004020,0.00004
 511,-0.00002200,-0.00009043,-0.00000576,-0.00009473,-0.00002827,0.0002
 0870,-0.00004751,0.00034430,-0.00044674,-0.00022218,0.00017535,-0.0000
 3564,-0.00013282,0.10445316,-0.05505604,0.07375544,0.00005162,-0.00004
 047,-0.00019420,0.00000542,0.00001547,0.00002858,-0.00003345,0.0000923
 6,0.00007866,0.00001112,0.00000800,0.00015628,-0.00005441,-0.00004427,
 0.00010036,0.00003644,0.00011125,0.00013403,0.00101778,-0.00035960,-0.
 00010373,0.00168678,0.00457495,-0.00131669,0.00916521,0.00478841,0.006
 73722,-0.10436243,-0.08804625,-0.08164775,-0.00865177,-0.02162479,-0.0
 1155804,-0.00346153,0.00340297,-0.00331209,0.00126922,-0.00159185,0.00
 050607,-0.00001505,-0.00000279,-0.00001567,-0.00000493,0.00003179,-0.0
 0004607,-0.00001821,-0.00003826,-0.00001291,-0.00007272,-0.00008958,-0
 .00004367,0.00003303,0.00020351,0.00006801,-0.00105535,-0.00093207,0.0
 0116946,0.10408593,-0.00013965,-0.00000210,-0.00006307,0.00003946,0.00
 000425,0.00000821,0.00003949,-0.00007519,0.00001127,0.00006912,0.00003
 432,0.00005988,0.00007575,0.00010278,0.00001561,0.00001810,0.00008112,
 0.00001430,-0.00048383,0.00059348,-0.00099656,0.00193040,-0.00396293,-
 0.00148493,-0.01403896,-0.00331339,-0.01102227,-0.09478886,-0.22761013
 ,-0.13252762,0.00553227,0.00988393,0.00783835,0.00320862,-0.00063834,0
 .00078235,-0.00083812,0.00054215,0.00040851,-0.00000139,-0.00001744,0.
 00000997,-0.00000433,0.00000296,0.00001532,0.00001236,-0.00000670,0.00
 002805,-0.00000947,-0.00002466,-0.00000968,0.00004133,-0.00041351,-0.0
 0002515,-0.00027479,0.00018528,0.00099010,0.09959296,0.22378751,0.0000
 2773,-0.00009363,0.00001086,0.00000493,0.00001501,-0.00001332,0.000006
 23,0.00011312,-0.00001130,0.00005121,0.00001421,-0.00008167,-0.0001091
 6,-0.00007626,-0.00000329,-0.00007315,-0.00013934,-0.00014779,-0.00047
 686,-0.00003359,0.00089597,-0.00136747,-0.00080607,0.00432508,0.000296
 93,0.00175689,0.00244919,-0.08365666,-0.12841424,-0.12714741,-0.002682
 82,-0.01079805,-0.00792230,-0.00371572,0.00175769,0.00155740,0.0013081
 1,0.00034937,-0.00031888,0.00000211,0.00000838,-0.00000124,0.00000412,
 -0.00001804,0.00004977,0.00003053,0.00003982,-0.00000291,0.00007484,0.
 00009119,0.00006146,-0.00001321,0.00011529,0.00000566,0.00142426,0.000
 46376,-0.00210421,0.08956145,0.13621430,0.12776624,-0.00508423,-0.0072
 9050,0.01336630,0.00126368,0.00109313,-0.00168785,-0.00230232,0.000988
 62,-0.00391291,-0.00370649,-0.00042028,-0.00180389,-0.00339862,0.00027
 844,-0.00188514,0.00028012,-0.00039267,-0.00030907,-0.00044564,0.00041
 448,0.00134933,-0.00656079,-0.00350611,-0.00656169,0.00169701,0.002613
 65,0.00039079,0.00276577,0.00115453,0.00079541,0.00486084,0.00099087,0
 .00204961,-0.26299466,-0.03381965,-0.15545170,0.00065811,-0.00172923,0
 .00101356,0.00025143,-0.00014622,0.00024787,-0.00000934,-0.00016234,0.
 00015750,-0.00014417,0.00000391,0.00009256,-0.00002719,-0.00017415,-0.
 00004481,0.00061432,0.00050187,-0.00007791,0.00040847,0.00006234,-0.00
 056569,0.00081638,-0.00001071,-0.00026424,0.27044292,-0.00566324,0.010
 02305,0.00488092,0.00075170,-0.00125248,-0.00056820,-0.00084024,-0.004
 44154,0.00210928,-0.00061686,-0.00158457,-0.00042619,0.00140704,-0.002
 84446,-0.00398847,-0.00001628,-0.00034927,-0.00023523,0.00029631,0.002
 21720,0.00155338,0.02020911,0.00847309,0.01427289,0.00288772,-0.003984
 94,-0.00008455,0.00084402,-0.00397243,-0.00210571,-0.02269180,0.001111
 80,-0.01389635,-0.03435837,-0.06446929,-0.03216456,-0.00146554,0.00101
 725,0.00070449,0.00015551,-0.00004805,0.00031729,0.00000282,-0.0000882
 4,0.00009182,-0.00010533,0.00008485,-0.00007454,-0.00024117,-0.0000652
 5,-0.00017721,0.00068406,-0.00075332,-0.00042123,0.00071570,0.00086730
 ,0.00042868,-0.00054222,0.00065751,-0.00078141,0.03805365,0.06030533,0
 .00468053,0.00261253,-0.00049144,-0.00031258,-0.00022792,0.00006388,-0
 .00094298,0.00002479,-0.00147461,0.00032521,0.00019625,-0.00083457,-0.
 00069111,-0.00093594,-0.00192633,-0.00025660,0.00010875,-0.00012081,0.
 00180230,0.00066783,-0.00131181,-0.00090709,-0.00151513,0.00141560,-0.
 00020879,0.00103038,0.00394108,0.00074273,-0.00336419,0.00295112,-0.00
 860816,-0.00011100,-0.00237557,-0.14813097,-0.03001898,-0.13478428,0.0
 0080436,0.00115389,-0.00195523,-0.00001139,0.00016421,-0.00007296,0.00
 003619,-0.00004422,-0.00003135,0.00003538,0.00003323,-0.00005739,0.000
 09213,-0.00029151,0.00006574,-0.00004466,-0.00011439,0.00009196,-0.000
 66112,-0.00026754,0.00110389,-0.00088234,-0.00022317,0.00092188,0.1529
 2213,0.03109124,0.13444232,0.00116864,-0.00469695,0.00268118,0.0003178
 8,0.00074005,-0.00045014,-0.00294253,0.00196486,-0.00171609,-0.0009674
 9,0.00031515,-0.00089680,-0.00081594,0.00117043,0.00028346,0.00001839,
 -0.00003222,-0.00004027,0.00012471,0.00018458,0.00006685,-0.00006237,-
 0.00059815,-0.00031405,-0.00031916,0.00012700,-0.00038592,0.00006010,0
 .00135433,0.00164522,-0.01959498,-0.00115978,-0.00628398,0.00078759,-0
 .00077313,-0.00027259,-0.29418036,-0.07117725,-0.06432025,0.00005167,-
 0.00004313,0.00003286,0.00000091,-0.00002016,0.00001921,-0.00002711,0.
 00000728,0.00000485,-0.00002522,-0.00006000,-0.00001166,0.00006615,-0.
 00001455,-0.00003758,0.00008368,0.00013329,-0.00002142,-0.00007435,0.0
 0005610,-0.00001032,0.00092460,0.00026539,0.00020624,0.31348683,0.0004
 4789,-0.00647993,0.00302763,0.00072499,0.00108395,-0.00061980,-0.00050
 999,0.00311195,-0.00142113,-0.00097012,0.00088458,-0.00111005,-0.00076
 238,0.00131975,0.00034202,0.00002245,-0.00009091,-0.00006014,-0.000014
 16,0.00029406,0.00018489,0.00069848,-0.00036552,0.00008480,0.00122197,
 -0.00094336,0.00077740,0.00052765,-0.00380354,-0.00283934,0.03728807,0
 .00266625,0.01157008,0.00205263,0.00197749,0.00046413,-0.08801949,-0.0
 7526580,-0.02455472,0.00007427,-0.00010643,0.00004642,-0.00001849,-0.0
 0003222,0.00002971,-0.00004214,0.00002712,-0.00002265,-0.00003722,-0.0
 0002990,0.00000071,0.00009620,-0.00006659,-0.00006604,-0.00016199,-0.0
 0045282,0.00004798,0.00003662,0.00000906,-0.00000790,0.00114381,-0.000
 79345,-0.00032842,0.07142060,0.08257965,0.00062825,-0.00058351,0.00206
 129,0.00023664,0.00021207,-0.00049734,-0.00079508,0.00054636,-0.002601
 30,-0.00030393,-0.00054407,-0.00059873,-0.00006634,0.00011353,-0.00030
 816,-0.00002825,-0.00003108,-0.00001657,0.00002142,0.00002301,0.000044
 71,0.00064926,-0.00027444,-0.00015183,-0.00033141,-0.00033799,0.000001
 30,-0.00060455,0.00034475,0.00019965,0.00070285,-0.00022960,-0.0009235
 0,0.00063580,0.00017495,0.00109527,-0.06585390,-0.01933479,-0.06962702
 ,0.00001983,0.00006304,0.00002439,0.00000582,-0.00000964,-0.00000223,-
 0.00000280,0.00000732,-0.00000796,0.00000005,-0.00001474,-0.00001108,0
 .00001108,-0.00001605,-0.00000035,-0.00000866,-0.00001419,0.00001310,0
 .00019613,-0.00002363,-0.00001277,0.00019736,-0.00060151,0.00033428,0.
 07018329,0.02192904,0.06776732,-0.00024905,0.00062243,-0.00089336,-0.0
 0006369,-0.00010807,0.00017969,-0.00060770,-0.00112707,0.00059796,0.00
 020416,0.00016044,0.00034811,0.00007763,-0.00010469,0.00010324,0.00003
 095,0.00014704,0.00009422,0.00000617,-0.00009984,-0.00046246,-0.001143
 65,0.00158205,-0.00055732,0.00045388,0.00081774,0.00079960,0.00155499,
 -0.00015719,0.00110970,-0.00245631,0.01513166,0.02032874,-0.00224182,-
 0.00161016,-0.00035055,-0.04838687,-0.00366955,-0.00649701,-0.00000539
 ,-0.00001283,-0.00000886,0.00001576,0.00002985,-0.00003840,-0.00000658
 ,-0.00000814,-0.00000005,-0.00000709,0.00001439,0.00000771,-0.00001077
 ,-0.00001266,0.00000189,0.00005878,-0.00002712,-0.00011632,-0.00035387
 ,0.00000367,-0.00021726,-0.00015380,0.00025582,-0.00002578,0.00561003,
 -0.00953263,-0.02674567,0.04744960,0.00006008,-0.00034002,-0.00058544,
 0.00001109,0.00006516,0.00008792,-0.00018469,0.00006829,0.00026353,0.0
 0003676,0.00038932,0.00037635,-0.00021192,0.00011158,0.00020953,0.0000
 0081,-0.00017561,-0.00013104,0.00010284,0.00024848,0.00049910,0.000408
 13,-0.00212168,0.00039046,-0.00052189,-0.00074341,-0.00035681,-0.00162
 122,0.00155318,-0.00056952,0.00131898,-0.02101595,-0.02866669,0.004235
 23,0.00075320,0.00007206,0.00047255,-0.08601635,-0.09238638,0.00002263
 ,-0.00002461,-0.00001000,-0.00002947,-0.00004038,0.00006506,0.00001028
 ,0.00000714,0.00000491,0.00000629,-0.00006850,-0.00000144,0.00002592,0
 .00000454,-0.00000825,-0.00001823,0.00001873,0.00007319,0.00045282,0.0
 0021393,-0.00003116,0.00033501,0.00007335,-0.00010503,0.00153913,-0.00
 238680,-0.00640977,-0.00716758,0.09895058,0.00004859,0.00014634,-0.000
 23593,-0.00005657,-0.00003166,0.00004808,-0.00018614,-0.00024455,0.000
 14405,-0.00002343,0.00001395,0.00008718,-0.00002521,-0.00004629,0.0000
 3783,0.00000560,0.00003813,0.00001386,0.00005295,0.00002536,-0.0001243
 2,0.00017488,0.00060031,0.00038428,0.00018406,-0.00046733,0.00013302,-
 0.00082820,0.00065351,0.00081870,-0.00084253,0.00223826,0.00562007,-0.
 00008399,0.00100452,0.00009201,-0.00018157,-0.10243711,-0.29844050,-0.
 00000224,0.00000139,-0.00000185,-0.00000017,0.00000523,-0.00001205,-0.
 00000080,0.00000242,-0.00000167,-0.00000361,-0.00000804,0.00000262,0.0
 0000094,0.00000545,-0.00000015,0.00003441,0.00001181,-0.00007712,0.000
 36272,-0.00022357,-0.00005855,0.00004491,0.00012400,0.00001781,0.00219
 141,-0.00052831,-0.00404078,0.00123052,0.10763977,0.30977739,-0.000029
 07,0.00108995,-0.00000531,-0.00011959,-0.00017132,0.00003526,-0.000525
 12,-0.00124606,-0.00050387,0.00016026,-0.00033031,-0.00005882,0.000210
 39,-0.00025975,-0.00018440,0.00000392,-0.00001621,0.00004070,-0.000232
 34,-0.00017149,0.00012369,-0.00137387,0.00119499,-0.00018190,0.0000090
 0,0.00062241,0.00077823,0.00123912,0.00036423,0.00005944,0.00624810,0.
 02203179,-0.01577729,-0.00026328,-0.00169577,-0.00145312,-0.09154069,-
 0.07390877,0.07258170,-0.00002321,0.00002412,-0.00000605,0.00000325,0.
 00001601,-0.00001528,-0.00000024,-0.00000185,-0.00000751,0.00004017,0.
 00011771,0.00003067,-0.00002427,0.00002261,0.00001583,-0.00014493,-0.0
 0002748,0.00018966,-0.00002087,-0.00002952,-0.00020559,-0.00015641,0.0
 0001219,0.00003640,-0.00369166,-0.01568701,0.02125282,0.00022462,0.000
 71644,-0.00209651,0.09000669,0.00045748,-0.00017519,0.00005815,-0.0001
 1704,0.00002300,0.00000285,-0.00022269,0.00012808,-0.00017083,-0.00028
 485,0.00004565,0.00006378,-0.00020204,0.00001542,0.00001337,-0.0000125
 3,-0.00000409,-0.00005261,0.00034259,0.00029757,-0.00014083,0.00219556
 ,-0.00111854,0.00003131,0.00009869,-0.00168706,-0.00084259,-0.00254517
 ,0.00051975,-0.00081051,-0.00367934,-0.02707068,0.01462330,0.00103491,
 0.00170985,0.00287942,-0.06864551,-0.16459920,0.11763602,0.00001928,0.
 00000929,0.00000394,-0.00000510,-0.00003095,0.00001101,-0.00000059,0.0
 0001820,-0.00000487,-0.00003590,-0.00017062,-0.00002264,0.00000010,-0.
 00003811,0.00000606,0.00008091,0.00000319,-0.00016498,0.00000101,-0.00
 003390,0.00026067,0.00001758,-0.00018342,0.00046436,-0.00070284,-0.003
 13660,0.00501096,0.00487243,0.01047583,-0.00852360,0.06733306,0.185002
 51,-0.00004774,0.00009866,-0.00013177,0.00001352,-0.00000616,0.0000193
 0,-0.00016365,-0.00025874,-0.00012946,0.00003862,0.00002240,0.00010513
 ,0.00001232,-0.00000985,0.00000743,0.00000552,0.00003604,0.00003844,0.
 00005231,0.00000103,-0.00012846,-0.00001178,0.00016508,-0.00044020,-0.
 00001908,-0.00009614,0.00016838,-0.00009643,0.00055867,0.00023737,-0.0
 0334585,-0.00299101,0.00468155,0.00008469,-0.00139139,0.00001244,0.069
 60268,0.12141223,-0.17288195,-0.00000208,-0.00000477,-0.00000542,0.000
 00407,0.00000939,-0.00001185,-0.00000248,-0.00000157,-0.00000519,0.000
 00504,-0.00001412,0.00000779,-0.00000563,-0.00000463,0.00000522,-0.000
 00527,0.00001864,0.00000173,0.00003419,0.00020343,-0.00021787,-0.00006
 243,-0.00004885,0.00008679,-0.00255350,-0.00694629,0.00725833,0.011111
 68,0.01957967,-0.01418397,-0.07464873,-0.13033172,0.17550625\\-0.00000
 023,0.00000082,0.00000060,-0.00000005,0.00000062,0.00000059,0.,0.00000
 047,0.00000054,0.00000021,0.00000012,0.00000031,-0.00000025,0.00000040
 ,0.00000010,-0.00000023,-0.00000017,-0.00000039,-0.00000047,-0.0000000
 6,-0.00000044,-0.00000012,-0.00000007,-0.00000036,0.00000005,-0.000000
 48,-0.00000030,0.00000032,-0.00000038,-0.00000001,0.00000036,-0.000000
 04,0.00000010,0.00000001,-0.00000020,-0.00000002,0.00000049,0.00000009
 ,0.00000052,-0.00000028,-0.00000003,-0.00000019,-0.00000068,-0.0000001
 0,-0.00000053,-0.00000018,-0.00000042,-0.00000056,-0.00000054,-0.00000
 022,-0.00000063,-0.00000056,0.00000014,-0.00000027,0.00000012,-0.00000
 065,-0.00000056,0.00000065,-0.00000049,-0.00000006,-0.00000029,0.00000
 037,0.00000010,0.00000039,0.00000028,0.00000059,0.00000077,-0.00000009
 ,0.00000049,0.00000051,0.00000008,0.00000039\\\@


 IT'S WHAT A FELLER THINKS HE KNOWS THAT HURTS HIM...
                    ------
           KIN HUBBARD
 Job cpu time:       0 days  0 hours 33 minutes 44.1 seconds.
 Elapsed time:       0 days  0 hours  2 minutes 49.0 seconds.
 File lengths (MBytes):  RWF=    166 Int=      0 D2E=      0 Chk=      6 Scr=      1
 Normal termination of Gaussian 16 at Fri Mar  6 18:38:59 2020.
