 Entering Gaussian System, Link 0=g16
 Input=c1c2im.gjf
 Output=c1c2im.log
 Initial command:
 /opt/g16/l1.exe "/scratch/mtmjea001/volumes/c1c2im/Gau-31238.inp" -scrdir="/scratch/mtmjea001/volumes/c1c2im/"
 Entering Link 1 = /opt/g16/l1.exe PID=     31239.
  
 Copyright (c) 1988-2019, Gaussian, Inc.  All Rights Reserved.
  
 This is part of the Gaussian(R) 16 program.  It is based on
 the Gaussian(R) 09 system (copyright 2009, Gaussian, Inc.),
 the Gaussian(R) 03 system (copyright 2003, Gaussian, Inc.),
 the Gaussian(R) 98 system (copyright 1998, Gaussian, Inc.),
 the Gaussian(R) 94 system (copyright 1995, Gaussian, Inc.),
 the Gaussian 92(TM) system (copyright 1992, Gaussian, Inc.),
 the Gaussian 90(TM) system (copyright 1990, Gaussian, Inc.),
 the Gaussian 88(TM) system (copyright 1988, Gaussian, Inc.),
 the Gaussian 86(TM) system (copyright 1986, Carnegie Mellon
 University), and the Gaussian 82(TM) system (copyright 1983,
 Carnegie Mellon University). Gaussian is a federally registered
 trademark of Gaussian, Inc.
  
 This software contains proprietary and confidential information,
 including trade secrets, belonging to Gaussian, Inc.
  
 This software is provided under written license and may be
 used, copied, transmitted, or stored only in accord with that
 written license.
  
 The following legend is applicable only to US Government
 contracts under FAR:
  
                    RESTRICTED RIGHTS LEGEND
  
 Use, reproduction and disclosure by the US Government is
 subject to restrictions as set forth in subparagraphs (a)
 and (c) of the Commercial Computer Software - Restricted
 Rights clause in FAR 52.227-19.
  
 Gaussian, Inc.
 340 Quinnipiac St., Bldg. 40, Wallingford CT 06492
  
  
 ---------------------------------------------------------------
 Warning -- This program may not be used in any manner that
 competes with the business of Gaussian, Inc. or will provide
 assistance to any competitor of Gaussian, Inc.  The licensee
 of this program is prohibited from giving any competitor of
 Gaussian, Inc. access to this program.  By using this program,
 the user acknowledges that Gaussian, Inc. is engaged in the
 business of creating and licensing software in the field of
 computational chemistry and represents and warrants to the
 licensee that it is not a competitor of Gaussian, Inc. and that
 it will not use this program in any manner prohibited above.
 ---------------------------------------------------------------
  

 Cite this work as:
 Gaussian 16, Revision C.01,
 M. J. Frisch, G. W. Trucks, H. B. Schlegel, G. E. Scuseria, 
 M. A. Robb, J. R. Cheeseman, G. Scalmani, V. Barone, 
 G. A. Petersson, H. Nakatsuji, X. Li, M. Caricato, A. V. Marenich, 
 J. Bloino, B. G. Janesko, R. Gomperts, B. Mennucci, H. P. Hratchian, 
 J. V. Ortiz, A. F. Izmaylov, J. L. Sonnenberg, D. Williams-Young, 
 F. Ding, F. Lipparini, F. Egidi, J. Goings, B. Peng, A. Petrone, 
 T. Henderson, D. Ranasinghe, V. G. Zakrzewski, J. Gao, N. Rega, 
 G. Zheng, W. Liang, M. Hada, M. Ehara, K. Toyota, R. Fukuda, 
 J. Hasegawa, M. Ishida, T. Nakajima, Y. Honda, O. Kitao, H. Nakai, 
 T. Vreven, K. Throssell, J. A. Montgomery, Jr., J. E. Peralta, 
 F. Ogliaro, M. J. Bearpark, J. J. Heyd, E. N. Brothers, K. N. Kudin, 
 V. N. Staroverov, T. A. Keith, R. Kobayashi, J. Normand, 
 K. Raghavachari, A. P. Rendell, J. C. Burant, S. S. Iyengar, 
 J. Tomasi, M. Cossi, J. M. Millam, M. Klene, C. Adamo, R. Cammi, 
 J. W. Ochterski, R. L. Martin, K. Morokuma, O. Farkas, 
 J. B. Foresman, and D. J. Fox, Gaussian, Inc., Wallingford CT, 2019.
 
 ******************************************
 Gaussian 16:  ES64L-G16RevC.01  3-Jul-2019
                10-Mar-2020 
 ******************************************
 %chk=c1c2im.chk
 %mem=52Gb
 %nprocs=12
 Will use up to   12 processors via shared memory.
 Default route: test
 ----------------------------------------------------------
 #p pbepbe/def2tzvp/w06 opt scrf(cpcm,solvent=generic,read)
 ----------------------------------------------------------
 1/18=20,19=15,26=3,38=1,40=2/1,3;
 2/9=110,12=2,17=6,18=5,40=1/2;
 3/5=44,7=101,11=2,25=1,30=1,70=2103,71=1,72=-2,74=1009,82=40/1,2,3;
 4//1;
 5/5=2,38=5/2;
 6/7=2,8=2,9=2,10=2,28=1/1;
 7//1,2,3,16;
 1/18=20,19=15,26=3/3(2);
 2/9=110/2;
 99//99;
 2/9=110/2;
 3/5=44,7=101,11=2,25=1,30=1,70=2105,71=1,72=-2,74=1009,82=40/1,2,3;
 4/5=5,16=3,69=1/1;
 5/5=2,38=5/2;
 7//1,2,3,16;
 1/18=20,19=15,26=3/3(-5);
 2/9=110/2;
 6/7=2,8=2,9=2,10=2,19=2,28=1/1;
 99/9=1/99;
 Leave Link    1 at Tue Mar 10 15:21:03 2020, MaxMem=  6979321856 cpu:               0.6 elap:               0.1
 (Enter /opt/g16/l101.exe)
 ------
 c1c2im
 ------
 Symbolic Z-matrix:
 Charge =  1 Multiplicity = 1
 C                     1.10923   0.41949   0.49733 
 C                     2.48734  -0.09417   0.12812 
 N                     2.88922  -1.1944    1.00712 
 C                     2.65315  -2.54241   0.7872 
 C                     3.16786  -3.2128    1.8603 
 N                     3.70846  -2.25847   2.70602 
 C                     3.54179  -1.0405    2.16959 
 C                     4.36001  -2.50751   3.98525 
 H                     0.81735   1.24432  -0.15924 
 H                     1.09237   0.7773    1.53181 
 H                     0.36115  -0.37481   0.40865 
 H                     3.23012   0.70593   0.21635 
 H                     2.50083  -0.44952  -0.90802 
 H                     2.13962  -2.84879  -0.10811 
 H                     3.21662  -4.25273   2.13547 
 H                     3.86827  -0.10119   2.60082 
 H                     4.31039  -3.57055   4.23571 
 H                     3.85156  -1.92813   4.76049 
 H                     5.40582  -2.19669   3.91566 
 
 ITRead=  0  0  0  0  0  0  0  0  0  0  0  0  0  0  0  0  0  0  0
 MicOpt= -1 -1 -1 -1 -1 -1 -1 -1 -1 -1 -1 -1 -1 -1 -1 -1 -1 -1 -1
 NAtoms=     19 NQM=       19 NQMF=       0 NMMI=      0 NMMIF=      0
                NMic=       0 NMicF=      0.
                    Isotopes and Nuclear Properties:
 (Nuclear quadrupole moments (NQMom) in fm**2, nuclear magnetic moments (NMagM)
  in nuclear magnetons)

  Atom         1           2           3           4           5           6           7           8           9          10
 IAtWgt=          12          12          14          12          12          14          12          12           1           1
 AtmWgt=  12.0000000  12.0000000  14.0030740  12.0000000  12.0000000  14.0030740  12.0000000  12.0000000   1.0078250   1.0078250
 NucSpn=           0           0           2           0           0           2           0           0           1           1
 AtZEff=  -0.0000000  -0.0000000  -0.0000000  -0.0000000  -0.0000000  -0.0000000  -0.0000000  -0.0000000  -0.0000000  -0.0000000
 NQMom=    0.0000000   0.0000000   2.0440000   0.0000000   0.0000000   2.0440000   0.0000000   0.0000000   0.0000000   0.0000000
 NMagM=    0.0000000   0.0000000   0.4037610   0.0000000   0.0000000   0.4037610   0.0000000   0.0000000   2.7928460   2.7928460
 AtZNuc=   6.0000000   6.0000000   7.0000000   6.0000000   6.0000000   7.0000000   6.0000000   6.0000000   1.0000000   1.0000000

  Atom        11          12          13          14          15          16          17          18          19
 IAtWgt=           1           1           1           1           1           1           1           1           1
 AtmWgt=   1.0078250   1.0078250   1.0078250   1.0078250   1.0078250   1.0078250   1.0078250   1.0078250   1.0078250
 NucSpn=           1           1           1           1           1           1           1           1           1
 AtZEff=  -0.0000000  -0.0000000  -0.0000000  -0.0000000  -0.0000000  -0.0000000  -0.0000000  -0.0000000  -0.0000000
 NQMom=    0.0000000   0.0000000   0.0000000   0.0000000   0.0000000   0.0000000   0.0000000   0.0000000   0.0000000
 NMagM=    2.7928460   2.7928460   2.7928460   2.7928460   2.7928460   2.7928460   2.7928460   2.7928460   2.7928460
 AtZNuc=   1.0000000   1.0000000   1.0000000   1.0000000   1.0000000   1.0000000   1.0000000   1.0000000   1.0000000
 Leave Link  101 at Tue Mar 10 15:21:03 2020, MaxMem=  6979321856 cpu:               3.4 elap:               0.3
 (Enter /opt/g16/l103.exe)

 GradGradGradGradGradGradGradGradGradGradGradGradGradGradGradGradGradGrad
 Berny optimization.
 Initialization pass.
                           ----------------------------
                           !    Initial Parameters    !
                           ! (Angstroms and Degrees)  !
 --------------------------                            --------------------------
 ! Name  Definition              Value          Derivative Info.                !
 --------------------------------------------------------------------------------
 ! R1    R(1,2)                  1.5164         estimate D2E/DX2                !
 ! R2    R(1,9)                  1.0939         estimate D2E/DX2                !
 ! R3    R(1,10)                 1.0947         estimate D2E/DX2                !
 ! R4    R(1,11)                 1.0947         estimate D2E/DX2                !
 ! R5    R(2,3)                  1.4645         estimate D2E/DX2                !
 ! R6    R(2,12)                 1.0953         estimate D2E/DX2                !
 ! R7    R(2,13)                 1.0955         estimate D2E/DX2                !
 ! R8    R(3,4)                  1.3861         estimate D2E/DX2                !
 ! R9    R(3,7)                  1.342          estimate D2E/DX2                !
 ! R10   R(4,5)                  1.366          estimate D2E/DX2                !
 ! R11   R(4,14)                 1.0766         estimate D2E/DX2                !
 ! R12   R(5,6)                  1.385          estimate D2E/DX2                !
 ! R13   R(5,15)                 1.0768         estimate D2E/DX2                !
 ! R14   R(6,7)                  1.3413         estimate D2E/DX2                !
 ! R15   R(6,8)                  1.457          estimate D2E/DX2                !
 ! R16   R(7,16)                 1.0839         estimate D2E/DX2                !
 ! R17   R(8,17)                 1.0933         estimate D2E/DX2                !
 ! R18   R(8,18)                 1.0933         estimate D2E/DX2                !
 ! R19   R(8,19)                 1.0932         estimate D2E/DX2                !
 ! A1    A(2,1,9)              110.5961         estimate D2E/DX2                !
 ! A2    A(2,1,10)             110.7809         estimate D2E/DX2                !
 ! A3    A(2,1,11)             110.8267         estimate D2E/DX2                !
 ! A4    A(9,1,10)             108.4581         estimate D2E/DX2                !
 ! A5    A(9,1,11)             108.43           estimate D2E/DX2                !
 ! A6    A(10,1,11)            107.6484         estimate D2E/DX2                !
 ! A7    A(1,2,3)              110.9622         estimate D2E/DX2                !
 ! A8    A(1,2,12)             110.4423         estimate D2E/DX2                !
 ! A9    A(1,2,13)             110.5713         estimate D2E/DX2                !
 ! A10   A(3,2,12)             108.3219         estimate D2E/DX2                !
 ! A11   A(3,2,13)             108.7011         estimate D2E/DX2                !
 ! A12   A(12,2,13)            107.7461         estimate D2E/DX2                !
 ! A13   A(2,3,4)              126.0633         estimate D2E/DX2                !
 ! A14   A(2,3,7)              124.5568         estimate D2E/DX2                !
 ! A15   A(4,3,7)              109.3777         estimate D2E/DX2                !
 ! A16   A(3,4,5)              106.7668         estimate D2E/DX2                !
 ! A17   A(3,4,14)             119.3359         estimate D2E/DX2                !
 ! A18   A(5,4,14)             133.8955         estimate D2E/DX2                !
 ! A19   A(4,5,6)              106.7749         estimate D2E/DX2                !
 ! A20   A(4,5,15)             133.7706         estimate D2E/DX2                !
 ! A21   A(6,5,15)             119.454          estimate D2E/DX2                !
 ! A22   A(5,6,7)              109.4501         estimate D2E/DX2                !
 ! A23   A(5,6,8)              126.3615         estimate D2E/DX2                !
 ! A24   A(7,6,8)              124.1883         estimate D2E/DX2                !
 ! A25   A(3,7,6)              107.622          estimate D2E/DX2                !
 ! A26   A(3,7,16)             126.1917         estimate D2E/DX2                !
 ! A27   A(6,7,16)             126.1848         estimate D2E/DX2                !
 ! A28   A(6,8,17)             110.306          estimate D2E/DX2                !
 ! A29   A(6,8,18)             108.9064         estimate D2E/DX2                !
 ! A30   A(6,8,19)             108.8621         estimate D2E/DX2                !
 ! A31   A(17,8,18)            109.3747         estimate D2E/DX2                !
 ! A32   A(17,8,19)            109.5391         estimate D2E/DX2                !
 ! A33   A(18,8,19)            109.8384         estimate D2E/DX2                !
 ! D1    D(9,1,2,3)            179.6973         estimate D2E/DX2                !
 ! D2    D(9,1,2,12)            59.5611         estimate D2E/DX2                !
 ! D3    D(9,1,2,13)           -59.604          estimate D2E/DX2                !
 ! D4    D(10,1,2,3)            59.4075         estimate D2E/DX2                !
 ! D5    D(10,1,2,12)          -60.7287         estimate D2E/DX2                !
 ! D6    D(10,1,2,13)         -179.8938         estimate D2E/DX2                !
 ! D7    D(11,1,2,3)           -60.0181         estimate D2E/DX2                !
 ! D8    D(11,1,2,12)          179.8457         estimate D2E/DX2                !
 ! D9    D(11,1,2,13)           60.6806         estimate D2E/DX2                !
 ! D10   D(1,2,3,4)             90.2038         estimate D2E/DX2                !
 ! D11   D(1,2,3,7)            -89.1994         estimate D2E/DX2                !
 ! D12   D(12,2,3,4)          -148.4066         estimate D2E/DX2                !
 ! D13   D(12,2,3,7)            32.1902         estimate D2E/DX2                !
 ! D14   D(13,2,3,4)           -31.5946         estimate D2E/DX2                !
 ! D15   D(13,2,3,7)           149.0022         estimate D2E/DX2                !
 ! D16   D(2,3,4,5)           -178.7778         estimate D2E/DX2                !
 ! D17   D(2,3,4,14)             0.7933         estimate D2E/DX2                !
 ! D18   D(7,3,4,5)              0.7012         estimate D2E/DX2                !
 ! D19   D(7,3,4,14)          -179.7277         estimate D2E/DX2                !
 ! D20   D(2,3,7,6)            178.5329         estimate D2E/DX2                !
 ! D21   D(2,3,7,16)            -1.0307         estimate D2E/DX2                !
 ! D22   D(4,3,7,6)             -0.9557         estimate D2E/DX2                !
 ! D23   D(4,3,7,16)           179.4807         estimate D2E/DX2                !
 ! D24   D(3,4,5,6)             -0.175          estimate D2E/DX2                !
 ! D25   D(3,4,5,15)           179.5521         estimate D2E/DX2                !
 ! D26   D(14,4,5,6)          -179.6562         estimate D2E/DX2                !
 ! D27   D(14,4,5,15)            0.0709         estimate D2E/DX2                !
 ! D28   D(4,5,6,7)             -0.4087         estimate D2E/DX2                !
 ! D29   D(4,5,6,8)            179.4809         estimate D2E/DX2                !
 ! D30   D(15,5,6,7)           179.8177         estimate D2E/DX2                !
 ! D31   D(15,5,6,8)            -0.2927         estimate D2E/DX2                !
 ! D32   D(5,6,7,3)              0.8443         estimate D2E/DX2                !
 ! D33   D(5,6,7,16)          -179.5921         estimate D2E/DX2                !
 ! D34   D(8,6,7,3)           -179.0483         estimate D2E/DX2                !
 ! D35   D(8,6,7,16)             0.5154         estimate D2E/DX2                !
 ! D36   D(5,6,8,17)            -3.8231         estimate D2E/DX2                !
 ! D37   D(5,6,8,18)          -123.8652         estimate D2E/DX2                !
 ! D38   D(5,6,8,19)           116.3931         estimate D2E/DX2                !
 ! D39   D(7,6,8,17)           176.051          estimate D2E/DX2                !
 ! D40   D(7,6,8,18)            56.009          estimate D2E/DX2                !
 ! D41   D(7,6,8,19)           -63.7327         estimate D2E/DX2                !
 --------------------------------------------------------------------------------
 Trust Radius=3.00D-01 FncErr=1.00D-07 GrdErr=1.00D-06 EigMax=2.50D+02 EigMin=1.00D-04
 Number of steps in this run=    103 maximum allowed number of steps=    114.
 GradGradGradGradGradGradGradGradGradGradGradGradGradGradGradGradGradGrad

 Leave Link  103 at Tue Mar 10 15:21:03 2020, MaxMem=  6979321856 cpu:               0.1 elap:               0.0
 (Enter /opt/g16/l202.exe)
                          Input orientation:                          
 ---------------------------------------------------------------------
 Center     Atomic      Atomic             Coordinates (Angstroms)
 Number     Number       Type             X           Y           Z
 ---------------------------------------------------------------------
      1          6           0        1.109230    0.419490    0.497330
      2          6           0        2.487340   -0.094170    0.128120
      3          7           0        2.889220   -1.194400    1.007120
      4          6           0        2.653150   -2.542410    0.787200
      5          6           0        3.167860   -3.212800    1.860300
      6          7           0        3.708460   -2.258470    2.706020
      7          6           0        3.541790   -1.040500    2.169590
      8          6           0        4.360010   -2.507510    3.985250
      9          1           0        0.817350    1.244320   -0.159240
     10          1           0        1.092370    0.777300    1.531810
     11          1           0        0.361150   -0.374810    0.408650
     12          1           0        3.230120    0.705930    0.216350
     13          1           0        2.500830   -0.449520   -0.908020
     14          1           0        2.139620   -2.848790   -0.108110
     15          1           0        3.216620   -4.252730    2.135470
     16          1           0        3.868270   -0.101190    2.600820
     17          1           0        4.310390   -3.570550    4.235710
     18          1           0        3.851560   -1.928130    4.760490
     19          1           0        5.405820   -2.196690    3.915660
 ---------------------------------------------------------------------
                    Distance matrix (angstroms):
                    1          2          3          4          5
     1  C    0.000000
     2  C    1.516361   0.000000
     3  N    2.456194   1.464464   0.000000
     4  C    3.352695   2.540818   1.386083   0.000000
     5  C    4.391944   3.631722   2.208958   1.365977   0.000000
     6  N    4.336563   3.580628   2.165562   2.208205   1.385004
     7  C    3.293231   2.484956   1.341965   2.226301   2.225842
     8  C    5.594684   4.920219   3.571658   3.625205   2.536546
     9  H    1.093902   2.159398   3.405935   4.313379   5.428569
    10  H    1.094742   2.162348   2.718744   3.743121   4.509597
    11  H    1.094715   2.162901   2.724157   3.177271   4.247246
    12  H    2.158512   1.095293   2.086333   3.348205   4.250046
    13  H    2.160263   1.095464   2.091281   2.697621   3.967901
    14  H    3.479930   2.786511   2.131348   1.076644   2.250426
    15  H    5.380914   4.674925   3.276240   2.249561   1.076824
    16  H    3.508287   2.832183   2.166455   3.274949   3.274303
    17  H    6.335876   5.681639   4.253188   3.961785   2.660063
    18  H    5.586253   5.165594   3.943633   4.195302   3.244830
    19  H    6.081946   5.223368   3.974603   4.181385   3.203974
                    6          7          8          9         10
     6  N    0.000000
     7  C    1.341263   0.000000
     8  C    1.457041   2.473504   0.000000
     9  H    5.370081   4.250462   6.618419   0.000000
    10  H    4.175954   3.116219   5.242787   1.775780   0.000000
    11  H    4.475552   3.696015   5.773332   1.775443   1.767351
    12  H    3.900632   2.638618   5.080104   2.500478   2.511076
    13  H    4.218051   3.302202   5.624586   2.502773   3.072721
    14  H    3.275525   3.228608   4.669283   4.301693   4.115167
    15  H    2.131785   3.228827   2.788336   6.421818   5.493455
    16  H    2.165748   1.083906   2.819367   4.328561   3.101636
    17  H    2.103289   3.355704   1.093273   7.395937   6.047357
    18  H    2.085773   2.756194   1.093252   6.593528   5.035559
    19  H    2.085204   2.803595   1.093238   7.035582   5.756145
                   11         12         13         14         15
    11  H    0.000000
    12  H    3.071802   0.000000
    13  H    2.513450   1.769502   0.000000
    14  H    3.090400   3.732358   2.554765   0.000000
    15  H    5.116041   5.317096   4.923372   2.857381   0.000000
    16  H    4.144921   2.596994   3.781955   4.227983   4.228059
    17  H    6.360475   5.967455   6.282778   4.909374   2.464287
    18  H    5.790879   5.289014   6.011885   5.242291   3.563375
    19  H    6.408359   5.181097   5.895715   5.223411   3.491271
                   16         17         18         19
    16  H    0.000000
    17  H    3.860673   0.000000
    18  H    2.828810   1.784226   0.000000
    19  H    2.912728   1.786026   1.789298   0.000000
 Stoichiometry    C6H11N2(1+)
 Framework group  C1[X(C6H11N2)]
 Deg. of freedom    51
 Full point group                 C1      NOp   1
 Largest Abelian subgroup         C1      NOp   1
 Largest concise Abelian subgroup C1      NOp   1
                         Standard orientation:                         
 ---------------------------------------------------------------------
 Center     Atomic      Atomic             Coordinates (Angstroms)
 Number     Number       Type             X           Y           Z
 ---------------------------------------------------------------------
      1          6           0        2.779771   -0.488056    0.696038
      2          6           0        2.039920   -0.153399   -0.584577
      3          7           0        0.632251    0.145960   -0.313453
      4          6           0        0.103488    1.395794   -0.031411
      5          6           0       -1.234105    1.218821    0.181701
      6          7           0       -1.489129   -0.132940    0.020642
      7          6           0       -0.349690   -0.768444   -0.290486
      8          6           0       -2.781190   -0.791214    0.162848
      9          1           0        3.828901   -0.715782    0.486063
     10          1           0        2.329032   -1.354935    1.189817
     11          1           0        2.741557    0.350913    1.398228
     12          1           0        2.084419   -0.995654   -1.283356
     13          1           0        2.494826    0.713148   -1.076715
     14          1           0        0.755476    2.252370   -0.012628
     15          1           0       -2.042879    1.884041    0.432535
     16          1           0       -0.240463   -1.829833   -0.481206
     17          1           0       -3.539075   -0.073275    0.487535
     18          1           0       -2.693215   -1.587202    0.907068
     19          1           0       -3.069596   -1.215943   -0.802345
 ---------------------------------------------------------------------
 Rotational constants (GHZ):           4.9963052           1.3082308           1.1376964
 Leave Link  202 at Tue Mar 10 15:21:03 2020, MaxMem=  6979321856 cpu:               0.1 elap:               0.0
 (Enter /opt/g16/l301.exe)
 Standard basis: def2TZVP (5D, 7F)
 Ernie: Thresh=  0.10000D-02 Tol=  0.10000D-05 Strict=F.
 There are   354 symmetry adapted cartesian basis functions of A   symmetry.
 There are   314 symmetry adapted basis functions of A   symmetry.
   314 basis functions,   496 primitive gaussians,   354 cartesian basis functions
    30 alpha electrons       30 beta electrons
       nuclear repulsion energy       381.5174956854 Hartrees.
 IExCor= 1009 DFT=T Ex=PBE Corr=PBE ExCW=0 ScaHFX=  0.000000
 ScaDFX=  1.000000  1.000000  1.000000  1.000000 ScalE2=  1.000000  1.000000
 IRadAn=      5 IRanWt=     -1 IRanGd=            0 ICorTp=0 IEmpDi=  4
 NAtoms=   19 NActive=   19 NUniq=   19 SFac= 1.00D+00 NAtFMM=   60 NAOKFM=F Big=F
 Integral buffers will be    131072 words long.
 Raffenetti 2 integral format.
 Two-electron integral symmetry is turned on.
 Standard density basis: W06 (5D, 7F)
   513 Density fitting functions
 There are   513 symmetry adapted density basis functions of A   symmetry.
 Using the following non-standard input for PCM:
 eps=999.0
 --- end of non-standard input.
 ------------------------------------------------------------------------------
 Polarizable Continuum Model (PCM)
 =================================
 Model                : C-PCM.
 Atomic radii         : UFF (Universal Force Field).
 Polarization charges : Total charges.
 Charge compensation  : None.
 Solution method      : On-the-fly selection.
 Cavity type          : Scaled VdW (van der Waals Surface) (Alpha=1.100).
 Cavity algorithm     : GePol (No added spheres)
                        Default sphere list used, NSphG=   19.
                        Lebedev-Laikov grids with approx.  5.0 points / Ang**2.
                        Smoothing algorithm: York/Karplus (Gamma=1.0000).
                        Polarization charges: spherical gaussians, with
                                              point-specific exponents (IZeta= 3).
                        Self-potential: point-specific (ISelfS= 7).
                        Self-field    : sphere-specific E.n sum rule (ISelfD= 2).
 1st derivatives      : Analytical E(r).r(x)/FMM algorithm (CHGder, D1EAlg=3).
                        Cavity 1st derivative terms included.
 Solvent              : Generic,
                        Eps                           = 999.000000
                        Eps(infinity)                 =   0.000000
                        RSolv                         =   0.000000 Ang.
                        Molar volume                  =   0.000000 cm**3/mol
                        Thermal expansion coefficient =   0.000000 K**-1
                        Absolute temperature          = 298.150000 K
                        Numeral density               =   0.000000 Ang**-3
                        Hydrogen bond acidity         =   0.000000
                        Hydrogen bond basicity        =   0.000000
                        Surface tension at interface  =   0.000000 (cal/mol)*Ang**-2
                        Carbon aromaticity            =   0.000000
                        Electronegative halogenicity  =   0.000000
 ------------------------------------------------------------------------------
 Spheres list:
 ISph  on   Nord     Re0    Alpha      Xe            Ye            Ze
    1   C      1    1.9255  1.100      2.779771     -0.488056      0.696038
    2   C      2    1.9255  1.100      2.039920     -0.153399     -0.584577
    3   N      3    1.8300  1.100      0.632251      0.145960     -0.313453
    4   C      4    1.9255  1.100      0.103488      1.395794     -0.031411
    5   C      5    1.9255  1.100     -1.234105      1.218821      0.181701
    6   N      6    1.8300  1.100     -1.489129     -0.132940      0.020642
    7   C      7    1.9255  1.100     -0.349690     -0.768444     -0.290486
    8   C      8    1.9255  1.100     -2.781190     -0.791214      0.162848
    9   H      9    1.4430  1.100      3.828901     -0.715782      0.486063
   10   H     10    1.4430  1.100      2.329032     -1.354935      1.189817
   11   H     11    1.4430  1.100      2.741557      0.350913      1.398228
   12   H     12    1.4430  1.100      2.084419     -0.995654     -1.283356
   13   H     13    1.4430  1.100      2.494826      0.713148     -1.076715
   14   H     14    1.4430  1.100      0.755476      2.252370     -0.012628
   15   H     15    1.4430  1.100     -2.042879      1.884041      0.432535
   16   H     16    1.4430  1.100     -0.240463     -1.829833     -0.481206
   17   H     17    1.4430  1.100     -3.539075     -0.073275      0.487535
   18   H     18    1.4430  1.100     -2.693215     -1.587202      0.907068
   19   H     19    1.4430  1.100     -3.069596     -1.215943     -0.802345
 ------------------------------------------------------------------------------
 GePol: Number of generator spheres                  =      19
 GePol: Total number of spheres                      =      19
 GePol: Number of exposed spheres                    =      19 (100.00%)
 GePol: Number of points                             =    1478
 GePol: Average weight of points                     =       0.13
 GePol: Minimum weight of points                     =   0.53D-10
 GePol: Maximum weight of points                     =    0.20577
 GePol: Number of points with low weight             =     101
 GePol: Fraction of low-weight points (<1% of avg)   =       6.83%
 GePol: Cavity surface area                          =    196.065 Ang**2
 GePol: Cavity volume                                =    188.143 Ang**3
 Leave Link  301 at Tue Mar 10 15:21:03 2020, MaxMem=  6979321856 cpu:               0.8 elap:               0.1
 (Enter /opt/g16/l302.exe)
 NPDir=0 NMtPBC=     1 NCelOv=     1 NCel=       1 NClECP=     1 NCelD=      1
         NCelK=      1 NCelE2=     1 NClLst=     1 CellRange=     0.0.
 One-electron integrals computed using PRISM.
 One-electron integral symmetry used in STVInt
   1 Symmetry operations used in ECPInt.
 ECPInt:  NShTT=    8778 NPrTT=   25860 LenC2=    8548 LenP2D=   20198.
 LDataN:  DoStor=T MaxTD1= 6 Len=  172
 NBasis=   314 RedAO= T EigKep=  8.54D-05  NBF=   314
 NBsUse=   314 1.00D-06 EigRej= -1.00D+00 NBFU=   314
 NBasis=      314 NBas6D=      354 NTT=       49455   NTT6D=    62835
 NDBShl=      175 NDBF=        513 NDBF6D=      620  NNucDB=        0
 IDenFi=        2 ISolve=        0 FullAP=F BlkAPC=T NucTyp=        0
 TolInv= 1.00D-06 TolIt=  1.00D-10 IR12=0.
 FoFCou: FMM=F IPFlag=           0 FMFlag=           0 FMFlg1=           0
         NFxFlg=           0 DoJE=F BraDBF=T KetDBF=T FulRan=T
         wScrn=  0.000000 ICntrl=       600 IOpCl=  3 I1Cent=           6 NGrid=           0
         NMat0=    1 NMatS0=    620 NMatT0=    0 NMatD0=    1 NMtDS0=    0 NMtDT0=    0
 Petite list used in FoFCou.
 DBF EigKep=  5.08D-06 EigRej= -1.00D+00
 NDBF=    513  NBFD=   513
 NRank=   513 NBFDU=   513
 S*AI*S=  7.79877368486    
 Precomputing XC quadrature grid using
 IXCGrd= 4 IRadAn=           5 IRanWt=          -1 IRanGd=           0 AccXCQ= 0.00D+00.
 Generated NRdTot=       0 NPtTot=           0 NUsed=           0 NTot=          32
 NSgBfM=   353   353   353   353   353 MxSgAt=    19 MxSgA2=    19.
 Leave Link  302 at Tue Mar 10 15:21:04 2020, MaxMem=  6979321856 cpu:               6.6 elap:               0.6
 (Enter /opt/g16/l303.exe)
 DipDrv:  MaxL=1.
 Leave Link  303 at Tue Mar 10 15:21:04 2020, MaxMem=  6979321856 cpu:               0.4 elap:               0.1
 (Enter /opt/g16/l401.exe)
 ExpMin= 9.52D-02 ExpMax= 1.97D+04 ExpMxC= 6.73D+02 IAcc=3 IRadAn=         5 AccDes= 0.00D+00
 Harris functional with IExCor= 1009 and IRadAn=       5 diagonalized for initial guess.
 HarFok:  IExCor= 1009 AccDes= 0.00D+00 IRadAn=         5 IDoV= 1 UseB2=F ITyADJ=14
 ICtDFT=  3500011 ScaDFX=  1.000000  1.000000  1.000000  1.000000
 FoFCou: FMM=F IPFlag=           0 FMFlag=      100000 FMFlg1=           0
         NFxFlg=           0 DoJE=T BraDBF=F KetDBF=T FulRan=T
         wScrn=  0.000000 ICntrl=       500 IOpCl=  0 I1Cent=   200000004 NGrid=           0
         NMat0=    1 NMatS0=      1 NMatT0=    0 NMatD0=    1 NMtDS0=    0 NMtDT0=    0
 Petite list used in FoFCou.
 Harris En= -344.366983131912    
 JPrj=0 DoOrth=F DoCkMO=F.
 Leave Link  401 at Tue Mar 10 15:21:05 2020, MaxMem=  6979321856 cpu:              13.2 elap:               1.1
 (Enter /opt/g16/l502.exe)
 Density fitting will be used, IDenFit= 2 NucTyp=  0.
 Integral symmetry usage will be decided dynamically.
 Closed shell SCF:
 Using DIIS extrapolation, IDIIS=  1040.
 NGot=  6979321856 LenX=  6979063039 LenY=  6978937282
 Requested convergence on RMS density matrix=1.00D-08 within 128 cycles.
 Requested convergence on MAX density matrix=1.00D-06.
 Requested convergence on             energy=1.00D-06.
 No special actions if energy rises.
 Fock matrices will be formed incrementally for  20 cycles.

 Cycle   1  Pass 1  IDiag  1:
 FoFCou: FMM=F IPFlag=           0 FMFlag=      100000 FMFlg1=           0
         NFxFlg=           0 DoJE=T BraDBF=T KetDBF=F FulRan=T
         wScrn=  0.000000 ICntrl=       500 IOpCl=  0 I1Cent=           5 NGrid=           0
         NMat0=    1 NMatS0=      1 NMatT0=    0 NMatD0=    1 NMtDS0=    0 NMtDT0=    0
 Symmetry not used in FoFCou.
 FoFJK:  IHMeth= 1 ICntrl=     500 DoSepK=F KAlg= 0 I1Cent=           4 FoldK=F
 IRaf= 940000000 NMat=       1 IRICut=       1 DoRegI=T DoRafI=F ISym2E= 0 IDoP0=0 IntGTp=1.
 Inv3:  Mode=1 IEnd=     6553452.
 Iteration    1 A*A^-1 deviation from unit magnitude is 3.77D-15 for    184.
 Iteration    1 A*A^-1 deviation from orthogonality  is 2.14D-15 for   1144    285.
 Iteration    1 A^-1*A deviation from unit magnitude is 3.33D-15 for    184.
 Iteration    1 A^-1*A deviation from orthogonality  is 1.58D-15 for   1254    409.
 E= -344.162108565290    
 DIIS: error= 2.06D-02 at cycle   1 NSaved=   1.
 NSaved= 1 IEnMin= 1 EnMin= -344.162108565290     IErMin= 1 ErrMin= 2.06D-02
 ErrMax= 2.06D-02  0.00D+00 EMaxC= 1.00D-01 BMatC= 1.45D-01 BMatP= 1.45D-01
 IDIUse=3 WtCom= 7.94D-01 WtEn= 2.06D-01
 Coeff-Com:  0.100D+01
 Coeff-En:   0.100D+01
 Coeff:      0.100D+01
 Gap=     0.148 Goal=   None    Shift=    0.000
 GapD=    0.148 DampG=1.000 DampE=0.500 DampFc=0.5000 IDamp=-1.
 Damping current iteration by 5.00D-01
 RMSDP=1.84D-03 MaxDP=7.51D-02              OVMax= 1.88D-01

 Cycle   2  Pass 1  IDiag  1:
 RMSU=  9.06D-04    CP:  9.81D-01
 E= -344.204536124572     Delta-E=       -0.042427559281 Rises=F Damp=T
 DIIS: error= 4.22D-03 at cycle   2 NSaved=   2.
 NSaved= 2 IEnMin= 2 EnMin= -344.204536124572     IErMin= 2 ErrMin= 4.22D-03
 ErrMax= 4.22D-03  0.00D+00 EMaxC= 1.00D-01 BMatC= 1.73D-02 BMatP= 1.45D-01
 IDIUse=3 WtCom= 9.58D-01 WtEn= 4.22D-02
 Coeff-Com:  0.175D+00 0.825D+00
 Coeff-En:   0.318D+00 0.682D+00
 Coeff:      0.181D+00 0.819D+00
 Gap=     0.190 Goal=   None    Shift=    0.000
 RMSDP=4.57D-04 MaxDP=2.10D-02 DE=-4.24D-02 OVMax= 1.64D-01

 Cycle   3  Pass 1  IDiag  1:
 RMSU=  4.12D-04    CP:  9.83D-01  7.83D-01
 E= -344.288501257984     Delta-E=       -0.083965133412 Rises=F Damp=F
 DIIS: error= 5.10D-03 at cycle   3 NSaved=   3.
 NSaved= 3 IEnMin= 3 EnMin= -344.288501257984     IErMin= 2 ErrMin= 4.22D-03
 ErrMax= 5.10D-03  0.00D+00 EMaxC= 1.00D-01 BMatC= 9.17D-03 BMatP= 1.73D-02
 IDIUse=3 WtCom= 9.49D-01 WtEn= 5.10D-02
 Coeff-Com:  0.300D-01 0.412D+00 0.558D+00
 Coeff-En:   0.000D+00 0.000D+00 0.100D+01
 Coeff:      0.285D-01 0.391D+00 0.580D+00
 Gap=     0.179 Goal=   None    Shift=    0.000
 RMSDP=3.03D-04 MaxDP=1.88D-02 DE=-8.40D-02 OVMax= 6.66D-02

 Cycle   4  Pass 1  IDiag  1:
 RMSU=  2.12D-04    CP:  9.85D-01  8.49D-01  4.96D-01
 E= -344.294017104329     Delta-E=       -0.005515846345 Rises=F Damp=F
 DIIS: error= 3.50D-03 at cycle   4 NSaved=   4.
 NSaved= 4 IEnMin= 4 EnMin= -344.294017104329     IErMin= 4 ErrMin= 3.50D-03
 ErrMax= 3.50D-03  0.00D+00 EMaxC= 1.00D-01 BMatC= 3.31D-03 BMatP= 9.17D-03
 IDIUse=3 WtCom= 9.65D-01 WtEn= 3.50D-02
 Coeff-Com: -0.737D-02 0.130D+00 0.390D+00 0.488D+00
 Coeff-En:   0.000D+00 0.000D+00 0.313D+00 0.687D+00
 Coeff:     -0.711D-02 0.125D+00 0.387D+00 0.495D+00
 Gap=     0.184 Goal=   None    Shift=    0.000
 RMSDP=1.37D-04 MaxDP=8.69D-03 DE=-5.52D-03 OVMax= 3.32D-02

 Cycle   5  Pass 1  IDiag  1:
 RMSU=  5.52D-05    CP:  9.84D-01  8.35D-01  6.67D-01  5.12D-01
 E= -344.297333578292     Delta-E=       -0.003316473963 Rises=F Damp=F
 DIIS: error= 6.50D-04 at cycle   5 NSaved=   5.
 NSaved= 5 IEnMin= 5 EnMin= -344.297333578292     IErMin= 5 ErrMin= 6.50D-04
 ErrMax= 6.50D-04  0.00D+00 EMaxC= 1.00D-01 BMatC= 1.66D-04 BMatP= 3.31D-03
 IDIUse=3 WtCom= 9.94D-01 WtEn= 6.50D-03
 Coeff-Com: -0.634D-02 0.430D-01 0.177D+00 0.283D+00 0.503D+00
 Coeff-En:   0.000D+00 0.000D+00 0.000D+00 0.000D+00 0.100D+01
 Coeff:     -0.630D-02 0.427D-01 0.176D+00 0.282D+00 0.506D+00
 Gap=     0.183 Goal=   None    Shift=    0.000
 RMSDP=3.14D-05 MaxDP=1.52D-03 DE=-3.32D-03 OVMax= 6.60D-03

 Cycle   6  Pass 1  IDiag  1:
 RMSU=  1.86D-05    CP:  9.84D-01  8.41D-01  6.55D-01  5.54D-01  5.89D-01
 E= -344.297476971068     Delta-E=       -0.000143392776 Rises=F Damp=F
 DIIS: error= 2.28D-04 at cycle   6 NSaved=   6.
 NSaved= 6 IEnMin= 6 EnMin= -344.297476971068     IErMin= 6 ErrMin= 2.28D-04
 ErrMax= 2.28D-04  0.00D+00 EMaxC= 1.00D-01 BMatC= 2.25D-05 BMatP= 1.66D-04
 IDIUse=3 WtCom= 9.98D-01 WtEn= 2.28D-03
 Coeff-Com: -0.334D-02 0.159D-01 0.737D-01 0.133D+00 0.328D+00 0.453D+00
 Coeff-En:   0.000D+00 0.000D+00 0.000D+00 0.000D+00 0.701D-01 0.930D+00
 Coeff:     -0.333D-02 0.159D-01 0.736D-01 0.132D+00 0.327D+00 0.454D+00
 Gap=     0.183 Goal=   None    Shift=    0.000
 RMSDP=1.03D-05 MaxDP=7.21D-04 DE=-1.43D-04 OVMax= 1.75D-03

 Cycle   7  Pass 1  IDiag  1:
 RMSU=  5.72D-06    CP:  9.84D-01  8.40D-01  6.59D-01  5.59D-01  6.25D-01
                    CP:  5.71D-01
 E= -344.297494753611     Delta-E=       -0.000017782542 Rises=F Damp=F
 DIIS: error= 7.80D-05 at cycle   7 NSaved=   7.
 NSaved= 7 IEnMin= 7 EnMin= -344.297494753611     IErMin= 7 ErrMin= 7.80D-05
 ErrMax= 7.80D-05  0.00D+00 EMaxC= 1.00D-01 BMatC= 2.73D-06 BMatP= 2.25D-05
 IDIUse=1 WtCom= 1.00D+00 WtEn= 0.00D+00
 Coeff-Com: -0.173D-02 0.705D-02 0.344D-01 0.654D-01 0.180D+00 0.308D+00
 Coeff-Com:  0.407D+00
 Coeff:     -0.173D-02 0.705D-02 0.344D-01 0.654D-01 0.180D+00 0.308D+00
 Coeff:      0.407D+00
 Gap=     0.183 Goal=   None    Shift=    0.000
 RMSDP=3.57D-06 MaxDP=2.02D-04 DE=-1.78D-05 OVMax= 7.06D-04

 Cycle   8  Pass 1  IDiag  1:
 RMSU=  1.98D-06    CP:  9.84D-01  8.41D-01  6.59D-01  5.60D-01  6.32D-01
                    CP:  5.89D-01  4.93D-01
 E= -344.297497149392     Delta-E=       -0.000002395781 Rises=F Damp=F
 DIIS: error= 1.90D-05 at cycle   8 NSaved=   8.
 NSaved= 8 IEnMin= 8 EnMin= -344.297497149392     IErMin= 8 ErrMin= 1.90D-05
 ErrMax= 1.90D-05  0.00D+00 EMaxC= 1.00D-01 BMatC= 1.68D-07 BMatP= 2.73D-06
 IDIUse=1 WtCom= 1.00D+00 WtEn= 0.00D+00
 Coeff-Com: -0.606D-03 0.218D-02 0.111D-01 0.220D-01 0.644D-01 0.118D+00
 Coeff-Com:  0.235D+00 0.547D+00
 Coeff:     -0.606D-03 0.218D-02 0.111D-01 0.220D-01 0.644D-01 0.118D+00
 Coeff:      0.235D+00 0.547D+00
 Gap=     0.183 Goal=   None    Shift=    0.000
 RMSDP=1.05D-06 MaxDP=7.61D-05 DE=-2.40D-06 OVMax= 1.84D-04

 Cycle   9  Pass 1  IDiag  1:
 RMSU=  7.21D-07    CP:  9.84D-01  8.41D-01  6.59D-01  5.60D-01  6.33D-01
                    CP:  5.89D-01  5.59D-01  6.80D-01
 E= -344.297497259689     Delta-E=       -0.000000110298 Rises=F Damp=F
 DIIS: error= 1.17D-05 at cycle   9 NSaved=   9.
 NSaved= 9 IEnMin= 9 EnMin= -344.297497259689     IErMin= 9 ErrMin= 1.17D-05
 ErrMax= 1.17D-05  0.00D+00 EMaxC= 1.00D-01 BMatC= 5.22D-08 BMatP= 1.68D-07
 IDIUse=1 WtCom= 1.00D+00 WtEn= 0.00D+00
 Coeff-Com: -0.128D-03 0.362D-03 0.196D-02 0.429D-02 0.147D-01 0.314D-01
 Coeff-Com:  0.984D-01 0.391D+00 0.458D+00
 Coeff:     -0.128D-03 0.362D-03 0.196D-02 0.429D-02 0.147D-01 0.314D-01
 Coeff:      0.984D-01 0.391D+00 0.458D+00
 Gap=     0.183 Goal=   None    Shift=    0.000
 RMSDP=4.13D-07 MaxDP=3.12D-05 DE=-1.10D-07 OVMax= 7.70D-05

 Cycle  10  Pass 1  IDiag  1:
 RMSU=  2.02D-07    CP:  9.84D-01  8.41D-01  6.59D-01  5.60D-01  6.34D-01
                    CP:  5.91D-01  5.57D-01  7.33D-01  5.47D-01
 E= -344.297497302853     Delta-E=       -0.000000043164 Rises=F Damp=F
 DIIS: error= 1.34D-06 at cycle  10 NSaved=  10.
 NSaved=10 IEnMin=10 EnMin= -344.297497302853     IErMin=10 ErrMin= 1.34D-06
 ErrMax= 1.34D-06  0.00D+00 EMaxC= 1.00D-01 BMatC= 1.10D-09 BMatP= 5.22D-08
 IDIUse=1 WtCom= 1.00D+00 WtEn= 0.00D+00
 Coeff-Com: -0.104D-04 0.157D-05 0.713D-04 0.291D-03 0.156D-02 0.504D-02
 Coeff-Com:  0.243D-01 0.128D+00 0.204D+00 0.637D+00
 Coeff:     -0.104D-04 0.157D-05 0.713D-04 0.291D-03 0.156D-02 0.504D-02
 Coeff:      0.243D-01 0.128D+00 0.204D+00 0.637D+00
 Gap=     0.183 Goal=   None    Shift=    0.000
 RMSDP=7.78D-08 MaxDP=3.50D-06 DE=-4.32D-08 OVMax= 9.08D-06

 Cycle  11  Pass 1  IDiag  1:
 RMSU=  4.82D-08    CP:  9.84D-01  8.41D-01  6.59D-01  5.60D-01  6.34D-01
                    CP:  5.92D-01  5.58D-01  7.42D-01  5.77D-01  7.40D-01
 E= -344.297497303765     Delta-E=       -0.000000000912 Rises=F Damp=F
 DIIS: error= 5.29D-07 at cycle  11 NSaved=  11.
 NSaved=11 IEnMin=11 EnMin= -344.297497303765     IErMin=11 ErrMin= 5.29D-07
 ErrMax= 5.29D-07  0.00D+00 EMaxC= 1.00D-01 BMatC= 1.11D-10 BMatP= 1.10D-09
 IDIUse=1 WtCom= 1.00D+00 WtEn= 0.00D+00
 Coeff-Com:  0.697D-06-0.171D-04-0.581D-04-0.633D-04 0.588D-04 0.112D-02
 Coeff-Com:  0.781D-02 0.472D-01 0.843D-01 0.341D+00 0.519D+00
 Coeff:      0.697D-06-0.171D-04-0.581D-04-0.633D-04 0.588D-04 0.112D-02
 Coeff:      0.781D-02 0.472D-01 0.843D-01 0.341D+00 0.519D+00
 Gap=     0.183 Goal=   None    Shift=    0.000
 RMSDP=2.15D-08 MaxDP=1.45D-06 DE=-9.12D-10 OVMax= 2.29D-06

 Cycle  12  Pass 1  IDiag  1:
 RMSU=  1.44D-08    CP:  9.84D-01  8.41D-01  6.59D-01  5.60D-01  6.34D-01
                    CP:  5.92D-01  5.58D-01  7.44D-01  5.78D-01  7.58D-01
                    CP:  6.89D-01
 E= -344.297497303857     Delta-E=       -0.000000000092 Rises=F Damp=F
 DIIS: error= 1.10D-07 at cycle  12 NSaved=  12.
 NSaved=12 IEnMin=12 EnMin= -344.297497303857     IErMin=12 ErrMin= 1.10D-07
 ErrMax= 1.10D-07  0.00D+00 EMaxC= 1.00D-01 BMatC= 5.27D-12 BMatP= 1.11D-10
 IDIUse=1 WtCom= 1.00D+00 WtEn= 0.00D+00
 Coeff-Com:  0.824D-06-0.625D-05-0.237D-04-0.398D-04-0.653D-04 0.193D-03
 Coeff-Com:  0.171D-02 0.114D-01 0.223D-01 0.106D+00 0.241D+00 0.618D+00
 Coeff:      0.824D-06-0.625D-05-0.237D-04-0.398D-04-0.653D-04 0.193D-03
 Coeff:      0.171D-02 0.114D-01 0.223D-01 0.106D+00 0.241D+00 0.618D+00
 Gap=     0.183 Goal=   None    Shift=    0.000
 RMSDP=4.91D-09 MaxDP=2.32D-07 DE=-9.18D-11 OVMax= 4.28D-07

 Error on total polarization charges =  0.01005
 SCF Done:  E(RPBE-PBE) =  -344.297497304     A.U. after   12 cycles
            NFock= 12  Conv=0.49D-08     -V/T= 2.0049
 KE= 3.426286996283D+02 PE=-1.550992058953D+03 EE= 4.825483663353D+02
 Leave Link  502 at Tue Mar 10 15:21:36 2020, MaxMem=  6979321856 cpu:             367.8 elap:              30.9
 (Enter /opt/g16/l601.exe)
 Copying SCF densities to generalized density rwf, IOpCl= 0 IROHF=0.

 **********************************************************************

            Population analysis using the SCF Density.

 **********************************************************************

 Orbital symmetries:
       Occupied  (A) (A) (A) (A) (A) (A) (A) (A) (A) (A) (A) (A)
                 (A) (A) (A) (A) (A) (A) (A) (A) (A) (A) (A) (A)
                 (A) (A) (A) (A) (A) (A)
       Virtual   (A) (A) (A) (A) (A) (A) (A) (A) (A) (A) (A) (A)
                 (A) (A) (A) (A) (A) (A) (A) (A) (A) (A) (A) (A)
                 (A) (A) (A) (A) (A) (A) (A) (A) (A) (A) (A) (A)
                 (A) (A) (A) (A) (A) (A) (A) (A) (A) (A) (A) (A)
                 (A) (A) (A) (A) (A) (A) (A) (A) (A) (A) (A) (A)
                 (A) (A) (A) (A) (A) (A) (A) (A) (A) (A) (A) (A)
                 (A) (A) (A) (A) (A) (A) (A) (A) (A) (A) (A) (A)
                 (A) (A) (A) (A) (A) (A) (A) (A) (A) (A) (A) (A)
                 (A) (A) (A) (A) (A) (A) (A) (A) (A) (A) (A) (A)
                 (A) (A) (A) (A) (A) (A) (A) (A) (A) (A) (A) (A)
                 (A) (A) (A) (A) (A) (A) (A) (A) (A) (A) (A) (A)
                 (A) (A) (A) (A) (A) (A) (A) (A) (A) (A) (A) (A)
                 (A) (A) (A) (A) (A) (A) (A) (A) (A) (A) (A) (A)
                 (A) (A) (A) (A) (A) (A) (A) (A) (A) (A) (A) (A)
                 (A) (A) (A) (A) (A) (A) (A) (A) (A) (A) (A) (A)
                 (A) (A) (A) (A) (A) (A) (A) (A) (A) (A) (A) (A)
                 (A) (A) (A) (A) (A) (A) (A) (A) (A) (A) (A) (A)
                 (A) (A) (A) (A) (A) (A) (A) (A) (A) (A) (A) (A)
                 (A) (A) (A) (A) (A) (A) (A) (A) (A) (A) (A) (A)
                 (A) (A) (A) (A) (A) (A) (A) (A) (A) (A) (A) (A)
                 (A) (A) (A) (A) (A) (A) (A) (A) (A) (A) (A) (A)
                 (A) (A) (A) (A) (A) (A) (A) (A) (A) (A) (A) (A)
                 (A) (A) (A) (A) (A) (A) (A) (A) (A) (A) (A) (A)
                 (A) (A) (A) (A) (A) (A) (A) (A)
 The electronic state is 1-A.
 Alpha  occ. eigenvalues --  -14.09846 -14.09651  -9.99290  -9.95477  -9.95392
 Alpha  occ. eigenvalues --   -9.94843  -9.94155  -9.88892  -1.00610  -0.89666
 Alpha  occ. eigenvalues --   -0.75634  -0.72500  -0.68215  -0.61829  -0.59422
 Alpha  occ. eigenvalues --   -0.56750  -0.51980  -0.47221  -0.45365  -0.44831
 Alpha  occ. eigenvalues --   -0.43785  -0.42711  -0.41303  -0.40520  -0.37844
 Alpha  occ. eigenvalues --   -0.36374  -0.34927  -0.32666  -0.28989  -0.25804
 Alpha virt. eigenvalues --   -0.07462  -0.04047   0.01404   0.02359   0.03295
 Alpha virt. eigenvalues --    0.04154   0.05447   0.05993   0.06251   0.07761
 Alpha virt. eigenvalues --    0.08072   0.08998   0.09252   0.09751   0.10564
 Alpha virt. eigenvalues --    0.10662   0.13516   0.15176   0.15561   0.16093
 Alpha virt. eigenvalues --    0.17476   0.18659   0.19576   0.19938   0.21929
 Alpha virt. eigenvalues --    0.22089   0.22973   0.23915   0.24567   0.26853
 Alpha virt. eigenvalues --    0.27305   0.29024   0.31510   0.32329   0.33780
 Alpha virt. eigenvalues --    0.34452   0.35066   0.36735   0.37302   0.37468
 Alpha virt. eigenvalues --    0.38411   0.39102   0.39862   0.40497   0.41238
 Alpha virt. eigenvalues --    0.41677   0.42925   0.43829   0.44544   0.46169
 Alpha virt. eigenvalues --    0.46774   0.47768   0.48613   0.49850   0.51751
 Alpha virt. eigenvalues --    0.53038   0.53420   0.56630   0.57685   0.61209
 Alpha virt. eigenvalues --    0.61518   0.63197   0.64998   0.66039   0.67384
 Alpha virt. eigenvalues --    0.68430   0.72589   0.73918   0.76451   0.76991
 Alpha virt. eigenvalues --    0.79622   0.81398   0.84990   0.85729   0.87057
 Alpha virt. eigenvalues --    0.89397   0.91775   0.92522   0.92705   0.95017
 Alpha virt. eigenvalues --    0.96459   0.97624   1.01594   1.02992   1.04336
 Alpha virt. eigenvalues --    1.06260   1.07800   1.10029   1.11262   1.14429
 Alpha virt. eigenvalues --    1.16306   1.20056   1.23609   1.25594   1.27446
 Alpha virt. eigenvalues --    1.30024   1.30084   1.35057   1.37509   1.40102
 Alpha virt. eigenvalues --    1.40902   1.42518   1.42864   1.43748   1.44674
 Alpha virt. eigenvalues --    1.45453   1.46471   1.47737   1.48433   1.49886
 Alpha virt. eigenvalues --    1.52067   1.53374   1.53659   1.55449   1.55706
 Alpha virt. eigenvalues --    1.57279   1.59918   1.62863   1.64050   1.65642
 Alpha virt. eigenvalues --    1.70316   1.71576   1.73150   1.74307   1.77994
 Alpha virt. eigenvalues --    1.80638   1.81531   1.83451   1.84595   1.86506
 Alpha virt. eigenvalues --    1.89700   1.91531   1.93800   1.95899   1.97667
 Alpha virt. eigenvalues --    1.99527   2.03203   2.05405   2.08074   2.12826
 Alpha virt. eigenvalues --    2.14990   2.18492   2.19437   2.20131   2.21252
 Alpha virt. eigenvalues --    2.22390   2.22966   2.24021   2.27483   2.28028
 Alpha virt. eigenvalues --    2.29746   2.32379   2.33270   2.37564   2.38083
 Alpha virt. eigenvalues --    2.39465   2.40488   2.43652   2.46263   2.46996
 Alpha virt. eigenvalues --    2.48919   2.50007   2.51397   2.52202   2.53467
 Alpha virt. eigenvalues --    2.55064   2.55455   2.56923   2.57405   2.61978
 Alpha virt. eigenvalues --    2.66775   2.69256   2.70941   2.71773   2.73744
 Alpha virt. eigenvalues --    2.76135   2.77215   2.78107   2.81133   2.83111
 Alpha virt. eigenvalues --    2.84401   2.87766   2.89288   2.90947   2.92900
 Alpha virt. eigenvalues --    2.94929   2.95921   2.98245   2.99503   3.01045
 Alpha virt. eigenvalues --    3.01373   3.03043   3.03743   3.05631   3.08619
 Alpha virt. eigenvalues --    3.10209   3.13335   3.13778   3.16509   3.17289
 Alpha virt. eigenvalues --    3.17869   3.19260   3.21145   3.22446   3.23510
 Alpha virt. eigenvalues --    3.25155   3.26374   3.31327   3.32145   3.32940
 Alpha virt. eigenvalues --    3.34972   3.38031   3.39173   3.41514   3.42326
 Alpha virt. eigenvalues --    3.43931   3.47537   3.49173   3.50854   3.55321
 Alpha virt. eigenvalues --    3.57788   3.60785   3.64400   3.69103   3.69952
 Alpha virt. eigenvalues --    3.71700   3.75094   3.76052   3.80761   3.85824
 Alpha virt. eigenvalues --    3.88349   3.92519   3.95555   4.03953   4.04752
 Alpha virt. eigenvalues --    4.07289   4.12846   4.14287   4.17237   4.17318
 Alpha virt. eigenvalues --    4.19160   4.25234   4.28289   4.30144   4.31721
 Alpha virt. eigenvalues --    4.34582   4.43010   4.53958   4.56873   4.60834
 Alpha virt. eigenvalues --    4.63677   4.66233   4.72320   4.75592   4.77517
 Alpha virt. eigenvalues --    4.84512   4.89343   4.92298   4.97071   5.01417
 Alpha virt. eigenvalues --    5.04078   5.05774   5.09033   5.14842   5.17615
 Alpha virt. eigenvalues --    5.21323   5.27745   5.35828   5.43875   5.56041
 Alpha virt. eigenvalues --    5.59838   5.61625   5.71975   5.84993   5.90315
 Alpha virt. eigenvalues --    5.97452  22.04226  22.04921  22.15340  22.27076
 Alpha virt. eigenvalues --   22.54746  22.62787  32.44359  32.57991
          Condensed to atoms (all electrons):
               1          2          3          4          5          6
     1  C    4.937390   0.356689  -0.049505  -0.003620   0.000737  -0.000132
     2  C    0.356689   4.870278   0.304716  -0.039058   0.007128   0.004867
     3  N   -0.049505   0.304716   6.028327   0.403649  -0.059451  -0.077177
     4  C   -0.003620  -0.039058   0.403649   4.955010   0.539879  -0.063423
     5  C    0.000737   0.007128  -0.059451   0.539879   4.966593   0.414391
     6  N   -0.000132   0.004867  -0.077177  -0.063423   0.414391   6.031273
     7  C   -0.002559  -0.039057   0.450695  -0.097675  -0.119066   0.453721
     8  C    0.000064  -0.000326   0.004639   0.009008  -0.041060   0.298227
     9  H    0.393646  -0.027890   0.006088  -0.000029  -0.000024   0.000001
    10  H    0.402243  -0.037130  -0.000946  -0.000384   0.000213  -0.000254
    11  H    0.402337  -0.037717  -0.000610   0.003389  -0.000128  -0.000042
    12  H   -0.034491   0.396982  -0.025695   0.005023  -0.000453   0.000355
    13  H   -0.034210   0.398587  -0.026983  -0.006054   0.002069  -0.000264
    14  H   -0.000922  -0.001580  -0.032425   0.419266  -0.032181   0.003084
    15  H    0.000023  -0.000105   0.002722  -0.023465   0.411149  -0.028556
    16  H   -0.000710  -0.000454  -0.026587   0.005856   0.004058  -0.025434
    17  H   -0.000005   0.000036  -0.000175   0.002567  -0.008404  -0.025854
    18  H   -0.000013  -0.000098   0.000302  -0.000729   0.002971  -0.031566
    19  H    0.000017   0.000000   0.000135  -0.000884   0.002226  -0.032599
               7          8          9         10         11         12
     1  C   -0.002559   0.000064   0.393646   0.402243   0.402337  -0.034491
     2  C   -0.039057  -0.000326  -0.027890  -0.037130  -0.037717   0.396982
     3  N    0.450695   0.004639   0.006088  -0.000946  -0.000610  -0.025695
     4  C   -0.097675   0.009008  -0.000029  -0.000384   0.003389   0.005023
     5  C   -0.119066  -0.041060  -0.000024   0.000213  -0.000128  -0.000453
     6  N    0.453721   0.298227   0.000001  -0.000254  -0.000042   0.000355
     7  C    4.975890  -0.050675   0.000020   0.003173  -0.000299  -0.004529
     8  C   -0.050675   4.892989  -0.000001   0.000008  -0.000005  -0.000054
     9  H    0.000020  -0.000001   0.528512  -0.019498  -0.019521  -0.002468
    10  H    0.003173   0.000008  -0.019498   0.536738  -0.023892  -0.005117
    11  H   -0.000299  -0.000005  -0.019521  -0.023892   0.536297   0.006638
    12  H   -0.004529  -0.000054  -0.002468  -0.005117   0.006638   0.529588
    13  H    0.004728   0.000026  -0.002159   0.006499  -0.005030  -0.021299
    14  H    0.007709  -0.000118  -0.000017  -0.000001   0.000548   0.000253
    15  H    0.007297  -0.005395  -0.000001   0.000001   0.000011   0.000018
    16  H    0.405261   0.000199  -0.000007   0.000465   0.000004   0.000162
    17  H    0.006844   0.397883   0.000000  -0.000000   0.000000   0.000002
    18  H   -0.005987   0.403517   0.000001   0.000013   0.000002   0.000017
    19  H   -0.005136   0.403943  -0.000000  -0.000002  -0.000000  -0.000018
              13         14         15         16         17         18
     1  C   -0.034210  -0.000922   0.000023  -0.000710  -0.000005  -0.000013
     2  C    0.398587  -0.001580  -0.000105  -0.000454   0.000036  -0.000098
     3  N   -0.026983  -0.032425   0.002722  -0.026587  -0.000175   0.000302
     4  C   -0.006054   0.419266  -0.023465   0.005856   0.002567  -0.000729
     5  C    0.002069  -0.032181   0.411149   0.004058  -0.008404   0.002971
     6  N   -0.000264   0.003084  -0.028556  -0.025434  -0.025854  -0.031566
     7  C    0.004728   0.007709   0.007297   0.405261   0.006844  -0.005987
     8  C    0.000026  -0.000118  -0.005395   0.000199   0.397883   0.403517
     9  H   -0.002159  -0.000017  -0.000001  -0.000007   0.000000   0.000001
    10  H    0.006499  -0.000001   0.000001   0.000465  -0.000000   0.000013
    11  H   -0.005030   0.000548   0.000011   0.000004   0.000000   0.000002
    12  H   -0.021299   0.000253   0.000018   0.000162   0.000002   0.000017
    13  H    0.528051   0.000164  -0.000014   0.000158  -0.000001   0.000004
    14  H    0.000164   0.446967  -0.001108  -0.000064  -0.000013   0.000009
    15  H   -0.000014  -0.001108   0.441575  -0.000100   0.001022   0.000104
    16  H    0.000158  -0.000064  -0.000100   0.423012  -0.000025   0.000190
    17  H   -0.000001  -0.000013   0.001022  -0.000025   0.490313  -0.017988
    18  H    0.000004   0.000009   0.000104   0.000190  -0.017988   0.502183
    19  H   -0.000003   0.000005   0.000120   0.000224  -0.018317  -0.025988
              19
     1  C    0.000017
     2  C    0.000000
     3  N    0.000135
     4  C   -0.000884
     5  C    0.002226
     6  N   -0.032599
     7  C   -0.005136
     8  C    0.403943
     9  H   -0.000000
    10  H   -0.000002
    11  H   -0.000000
    12  H   -0.000018
    13  H   -0.000003
    14  H    0.000005
    15  H    0.000120
    16  H    0.000224
    17  H   -0.018317
    18  H   -0.025988
    19  H    0.503027
 Mulliken charges:
               1
     1  C   -0.366982
     2  C   -0.155870
     3  N    0.098279
     4  C   -0.108326
     5  C   -0.090649
     6  N    0.079381
     7  C    0.009644
     8  C   -0.312869
     9  H    0.143346
    10  H    0.137873
    11  H    0.138017
    12  H    0.155085
    13  H    0.155732
    14  H    0.190424
    15  H    0.194700
    16  H    0.213792
    17  H    0.172115
    18  H    0.173056
    19  H    0.173251
 Sum of Mulliken charges =   1.00000
 Mulliken charges with hydrogens summed into heavy atoms:
               1
     1  C    0.052255
     2  C    0.154947
     3  N    0.098279
     4  C    0.082098
     5  C    0.104051
     6  N    0.079381
     7  C    0.223436
     8  C    0.205553
 Electronic spatial extent (au):  <R**2>=           1090.5157
 Charge=              1.0000 electrons
 Dipole moment (field-independent basis, Debye):
    X=             -1.7019    Y=             -0.7271    Z=             -0.5709  Tot=              1.9367
 Quadrupole moment (field-independent basis, Debye-Ang):
   XX=            -24.2408   YY=            -36.5427   ZZ=            -47.1031
   XY=              1.6560   XZ=             -2.8773   YZ=              1.5414
 Traceless Quadrupole moment (field-independent basis, Debye-Ang):
   XX=             11.7214   YY=             -0.5805   ZZ=            -11.1409
   XY=              1.6560   XZ=             -2.8773   YZ=              1.5414
 Octapole moment (field-independent basis, Debye-Ang**2):
  XXX=            -22.9476  YYY=              2.3151  ZZZ=             -2.2489  XYY=             -5.5233
  XXY=             -3.5462  XXZ=              0.5763  XZZ=              0.0589  YZZ=             -3.6524
  YYZ=             -0.2629  XYZ=             -1.6171
 Hexadecapole moment (field-independent basis, Debye-Ang**3):
 XXXX=           -871.5343 YYYY=           -231.3335 ZZZZ=           -119.1074 XXXY=              4.5724
 XXXZ=            -22.2720 YYYX=              7.5019 YYYZ=              6.0116 ZZZX=             -4.1368
 ZZZY=              1.5421 XXYY=           -193.1091 XXZZ=           -187.6905 YYZZ=            -63.0753
 XXYZ=              4.6578 YYXZ=             -7.1422 ZZXY=              4.6235
 N-N= 3.815174956854D+02 E-N=-1.550992045218D+03  KE= 3.426286996283D+02
 No NMR shielding tensors so no spin-rotation constants.
 Leave Link  601 at Tue Mar 10 15:21:36 2020, MaxMem=  6979321856 cpu:               2.4 elap:               0.2
 (Enter /opt/g16/l701.exe)
 ... and contract with generalized density number  0.
 Compute integral first derivatives.
   1 Symmetry operations used in ECPInt.
 ECPInt:  NShTT=    8778 NPrTT=   25860 LenC2=    8548 LenP2D=   20198.
 LDataN:  DoStor=T MaxTD1= 7 Len=  274
 D1PCM: C-PCM CHGder 1st derivatives, ID1Alg=3 FixD1E=F DoIter=F DoCFld=F I1PDM=0.
 GePol: Maximum number of non-zero 1st derivatives   =     222
 Leave Link  701 at Tue Mar 10 15:21:37 2020, MaxMem=  6979321856 cpu:              14.1 elap:               1.2
 (Enter /opt/g16/l702.exe)
 L702 exits ... SP integral derivatives will be done elsewhere.
 Leave Link  702 at Tue Mar 10 15:21:37 2020, MaxMem=  6979321856 cpu:               0.2 elap:               0.0
 (Enter /opt/g16/l703.exe)
 Integral derivatives from FoFJK, PRISM(SPDF).
 Compute integral first derivatives, UseDBF=T ICtDFT=           0.
 Calling FoFJK, ICntrl=      2527 FMM=F ISym2X=0 I1Cent= 4 IOpClX= 0 NMat=1 NMatS=1 NMatT=0.
 FoFJK:  IHMeth= 1 ICntrl=    2527 DoSepK=F KAlg= 0 I1Cent=           4 FoldK=F
 IRaf=         0 NMat=       1 IRICut=       1 DoRegI=T DoRafI=F ISym2E= 0 IDoP0=0 IntGTp=1.
 FoFCou: FMM=F IPFlag=           0 FMFlag=      100000 FMFlg1=         800
         NFxFlg=           0 DoJE=F BraDBF=F KetDBF=T FulRan=T
         wScrn=  0.000000 ICntrl=      2527 IOpCl=  0 I1Cent=           4 NGrid=           0
         NMat0=    1 NMatS0=      1 NMatT0=    0 NMatD0=    1 NMtDS0=    0 NMtDT0=    0
 Symmetry not used in FoFCou.
 Leave Link  703 at Tue Mar 10 15:21:41 2020, MaxMem=  6979321856 cpu:              39.1 elap:               3.3
 (Enter /opt/g16/l716.exe)
 Dipole        =-6.69564365D-01-2.86068203D-01-2.24592459D-01
 ***** Axes restored to original set *****
 -------------------------------------------------------------------
 Center     Atomic                   Forces (Hartrees/Bohr)
 Number     Number              X              Y              Z
 -------------------------------------------------------------------
      1        6          -0.004113554   -0.000776770    0.002600872
      2        6          -0.003672195    0.005305504   -0.002580833
      3        7           0.006752892   -0.001628934   -0.001884445
      4        6           0.000808267    0.009721203    0.002767506
      5        6           0.002783993    0.007308951    0.005265190
      6        7          -0.001038647   -0.001205278   -0.001330673
      7        6          -0.004354052   -0.006620168   -0.003326563
      8        6           0.002342587    0.000677751    0.002679137
      9        1           0.000394674    0.001583163   -0.001970008
     10        1           0.000104554    0.002050398    0.002078813
     11        1          -0.002267598   -0.001466072   -0.001283852
     12        1           0.002632128   -0.000906993    0.000669053
     13        1           0.002040499   -0.002837438   -0.000043395
     14        1          -0.001621827   -0.005631799   -0.002436302
     15        1          -0.001682578   -0.005106623   -0.002624948
     16        1          -0.000160285   -0.000235794   -0.000040753
     17        1          -0.001079851   -0.000325302   -0.002098550
     18        1          -0.000069719    0.000293151    0.002086505
     19        1           0.002200714   -0.000198949    0.001473247
 -------------------------------------------------------------------
 Cartesian Forces:  Max     0.009721203 RMS     0.003092569
 Leave Link  716 at Tue Mar 10 15:21:41 2020, MaxMem=  6979321856 cpu:               0.2 elap:               0.0
 (Enter /opt/g16/l103.exe)

 GradGradGradGradGradGradGradGradGradGradGradGradGradGradGradGradGradGrad
 Berny optimization.
 FormGI is forming the generalized inverse of G from B-inverse, IUseBI=4.
 Internal  Forces:  Max     0.006190523 RMS     0.002208890
 Search for a local minimum.
 Step number   1 out of a maximum of  103
 All quantities printed in internal units (Hartrees-Bohrs-Radians)
 RMS Force = .22089D-02 SwitMx=.10000D-02 MixMth= 1
 Mixed Optimization -- RFO/linear search
 Second derivative matrix not updated -- first step.
 ITU=  0
     Eigenvalues ---    0.00550   0.00839   0.00937   0.01532   0.01668
     Eigenvalues ---    0.02105   0.02135   0.02355   0.02357   0.02464
     Eigenvalues ---    0.04436   0.05508   0.05686   0.05702   0.07579
     Eigenvalues ---    0.07726   0.09279   0.12696   0.15999   0.15999
     Eigenvalues ---    0.16000   0.16000   0.16000   0.16000   0.16000
     Eigenvalues ---    0.16000   0.16000   0.21944   0.22831   0.23555
     Eigenvalues ---    0.24998   0.25000   0.30720   0.34189   0.34208
     Eigenvalues ---    0.34270   0.34273   0.34366   0.34437   0.34440
     Eigenvalues ---    0.34441   0.35527   0.36381   0.36403   0.36411
     Eigenvalues ---    0.37337   0.43062   0.45694   0.48909   0.54722
     Eigenvalues ---    0.55452
 RFO step:  Lambda=-2.33008145D-03 EMin= 5.49526746D-03
 Linear search not attempted -- first point.
 Iteration  1 RMS(Cart)=  0.03696463 RMS(Int)=  0.00052776
 Iteration  2 RMS(Cart)=  0.00066543 RMS(Int)=  0.00014887
 Iteration  3 RMS(Cart)=  0.00000026 RMS(Int)=  0.00014887
 ITry= 1 IFail=0 DXMaxC= 1.18D-01 DCOld= 1.00D+10 DXMaxT= 3.00D-01 DXLimC= 3.00D+00 Rises=F
 Variable       Old X    -DE/DX   Delta X   Delta X   Delta X     New X
                                 (Linear)    (Quad)   (Total)
    R1        2.86551   0.00619   0.00000   0.02000   0.02000   2.88551
    R2        2.06718   0.00227   0.00000   0.00656   0.00656   2.07373
    R3        2.06876   0.00264   0.00000   0.00766   0.00766   2.07642
    R4        2.06871   0.00272   0.00000   0.00787   0.00787   2.07658
    R5        2.76744   0.00387   0.00000   0.01055   0.01055   2.77799
    R6        2.06980   0.00117   0.00000   0.00340   0.00340   2.07320
    R7        2.07013   0.00099   0.00000   0.00286   0.00286   2.07299
    R8        2.61932  -0.00365   0.00000  -0.00763  -0.00763   2.61169
    R9        2.53595  -0.00034   0.00000  -0.00066  -0.00066   2.53528
   R10        2.58132   0.00116   0.00000   0.00226   0.00227   2.58359
   R11        2.03456   0.00440   0.00000   0.01202   0.01202   2.04658
   R12        2.61728  -0.00312   0.00000  -0.00637  -0.00637   2.61091
   R13        2.03490   0.00418   0.00000   0.01143   0.01143   2.04633
   R14        2.53462   0.00042   0.00000   0.00075   0.00074   2.53536
   R15        2.75341   0.00507   0.00000   0.01349   0.01349   2.76690
   R16        2.04829  -0.00027   0.00000  -0.00076  -0.00076   2.04753
   R17        2.06599  -0.00012   0.00000  -0.00034  -0.00034   2.06565
   R18        2.06595   0.00166   0.00000   0.00477   0.00477   2.07072
   R19        2.06592   0.00197   0.00000   0.00567   0.00567   2.07159
    A1        1.93027  -0.00223   0.00000  -0.01892  -0.01893   1.91134
    A2        1.93349   0.00067   0.00000   0.00664   0.00656   1.94005
    A3        1.93429   0.00091   0.00000   0.00825   0.00818   1.94247
    A4        1.89295   0.00021   0.00000  -0.00376  -0.00377   1.88918
    A5        1.89246   0.00013   0.00000  -0.00401  -0.00401   1.88845
    A6        1.87882   0.00036   0.00000   0.01216   0.01201   1.89083
    A7        1.93666   0.00498   0.00000   0.02269   0.02273   1.95939
    A8        1.92758   0.00059   0.00000   0.01771   0.01774   1.94533
    A9        1.92983   0.00058   0.00000   0.01179   0.01197   1.94180
   A10        1.89057  -0.00296   0.00000  -0.01948  -0.01987   1.87070
   A11        1.89719  -0.00387   0.00000  -0.03334  -0.03353   1.86367
   A12        1.88052   0.00041   0.00000  -0.00145  -0.00208   1.87844
   A13        2.20022  -0.00006   0.00000   0.00013   0.00007   2.20029
   A14        2.17393   0.00327   0.00000   0.01331   0.01324   2.18717
   A15        1.90900  -0.00321   0.00000  -0.01365  -0.01379   1.89521
   A16        1.86343   0.00126   0.00000   0.00489   0.00483   1.86826
   A17        2.08280   0.00402   0.00000   0.02623   0.02623   2.10903
   A18        2.33692  -0.00527   0.00000  -0.03103  -0.03103   2.30589
   A19        1.86357   0.00163   0.00000   0.00684   0.00678   1.87035
   A20        2.33474  -0.00516   0.00000  -0.03018  -0.03017   2.30457
   A21        2.08486   0.00353   0.00000   0.02338   0.02339   2.10825
   A22        1.91027  -0.00392   0.00000  -0.01595  -0.01602   1.89424
   A23        2.20542  -0.00021   0.00000  -0.00062  -0.00059   2.20484
   A24        2.16749   0.00413   0.00000   0.01657   0.01661   2.18410
   A25        1.87836   0.00426   0.00000   0.01841   0.01826   1.89662
   A26        2.20246  -0.00210   0.00000  -0.00898  -0.00902   2.19344
   A27        2.20234  -0.00215   0.00000  -0.00927  -0.00931   2.19303
   A28        1.92520  -0.00465   0.00000  -0.03214  -0.03205   1.89315
   A29        1.90078   0.00228   0.00000   0.01570   0.01555   1.91633
   A30        1.90000   0.00309   0.00000   0.02079   0.02068   1.92068
   A31        1.90895   0.00044   0.00000  -0.00094  -0.00089   1.90806
   A32        1.91182   0.00009   0.00000  -0.00283  -0.00271   1.90910
   A33        1.91704  -0.00123   0.00000  -0.00042  -0.00075   1.91629
    D1        3.13631   0.00038   0.00000   0.00978   0.00983  -3.13704
    D2        1.03954   0.00045   0.00000   0.00771   0.00766   1.04720
    D3       -1.04029  -0.00080   0.00000  -0.00928  -0.00927  -1.04956
    D4        1.03686   0.00114   0.00000   0.02260   0.02268   1.05954
    D5       -1.05992   0.00121   0.00000   0.02053   0.02051  -1.03941
    D6       -3.13974  -0.00004   0.00000   0.00354   0.00358  -3.13616
    D7       -1.04751  -0.00034   0.00000  -0.00232  -0.00230  -1.04982
    D8        3.13890  -0.00027   0.00000  -0.00438  -0.00448   3.13442
    D9        1.05908  -0.00152   0.00000  -0.02138  -0.02141   1.03767
   D10        1.57435  -0.00063   0.00000  -0.03561  -0.03567   1.53868
   D11       -1.55682  -0.00009   0.00000  -0.00739  -0.00735  -1.56417
   D12       -2.59018   0.00127   0.00000  -0.01225  -0.01264  -2.60282
   D13        0.56182   0.00180   0.00000   0.01597   0.01569   0.57751
   D14       -0.55143  -0.00196   0.00000  -0.04270  -0.04240  -0.59383
   D15        2.60058  -0.00143   0.00000  -0.01447  -0.01408   2.58650
   D16       -3.12026  -0.00006   0.00000   0.00280   0.00270  -3.11756
   D17        0.01385   0.00021   0.00000   0.01377   0.01386   0.02771
   D18        0.01224  -0.00049   0.00000  -0.02172  -0.02156  -0.00932
   D19       -3.13684  -0.00023   0.00000  -0.01075  -0.01039   3.13595
   D20        3.11599   0.00023   0.00000   0.00601   0.00617   3.12216
   D21       -0.01799  -0.00029   0.00000  -0.01560  -0.01559  -0.03358
   D22       -0.01668   0.00068   0.00000   0.03016   0.03029   0.01361
   D23        3.13253   0.00016   0.00000   0.00854   0.00852   3.14105
   D24       -0.00305   0.00006   0.00000   0.00468   0.00467   0.00161
   D25        3.13377   0.00042   0.00000   0.01531   0.01499  -3.13442
   D26       -3.13559  -0.00032   0.00000  -0.00900  -0.00865   3.13895
   D27        0.00124   0.00004   0.00000   0.00164   0.00167   0.00291
   D28       -0.00713   0.00037   0.00000   0.01385   0.01378   0.00665
   D29        3.13253   0.00041   0.00000   0.01489   0.01483  -3.13582
   D30        3.13841   0.00010   0.00000   0.00519   0.00503  -3.13975
   D31       -0.00511   0.00013   0.00000   0.00624   0.00608   0.00097
   D32        0.01474  -0.00064   0.00000  -0.02718  -0.02731  -0.01258
   D33       -3.13447  -0.00012   0.00000  -0.00556  -0.00555  -3.14003
   D34       -3.12498  -0.00067   0.00000  -0.02817  -0.02832   3.12988
   D35        0.00899  -0.00015   0.00000  -0.00655  -0.00656   0.00243
   D36       -0.06673  -0.00005   0.00000  -0.00168  -0.00167  -0.06840
   D37       -2.16186   0.00082   0.00000   0.00925   0.00939  -2.15246
   D38        2.03144  -0.00085   0.00000  -0.01175  -0.01195   2.01949
   D39        3.07267  -0.00002   0.00000  -0.00053  -0.00049   3.07218
   D40        0.97754   0.00085   0.00000   0.01040   0.01057   0.98811
   D41       -1.11235  -0.00082   0.00000  -0.01060  -0.01077  -1.12311
         Item               Value     Threshold  Converged?
 Maximum Force            0.006191     0.000450     NO 
 RMS     Force            0.002209     0.000300     NO 
 Maximum Displacement     0.117833     0.001800     NO 
 RMS     Displacement     0.036996     0.001200     NO 
 Predicted change in Energy=-1.187927D-03
 Lowest energy point so far.  Saving SCF results.
 GradGradGradGradGradGradGradGradGradGradGradGradGradGradGradGradGradGrad

 Leave Link  103 at Tue Mar 10 15:21:41 2020, MaxMem=  6979321856 cpu:               0.3 elap:               0.1
 (Enter /opt/g16/l202.exe)
                          Input orientation:                          
 ---------------------------------------------------------------------
 Center     Atomic      Atomic             Coordinates (Angstroms)
 Number     Number       Type             X           Y           Z
 ---------------------------------------------------------------------
      1          6           0        1.079777    0.434559    0.464821
      2          6           0        2.478575   -0.081185    0.134775
      3          7           0        2.888642   -1.182899    1.017448
      4          6           0        2.644060   -2.526994    0.808536
      5          6           0        3.165441   -3.200154    1.878206
      6          7           0        3.717744   -2.257154    2.723559
      7          6           0        3.530148   -1.041741    2.187264
      8          6           0        4.395607   -2.522221    3.994018
      9          1           0        0.818319    1.249849   -0.221595
     10          1           0        1.031851    0.821222    1.492220
     11          1           0        0.326619   -0.358521    0.358438
     12          1           0        3.231771    0.710419    0.233117
     13          1           0        2.529711   -0.462597   -0.892489
     14          1           0        2.127452   -2.865565   -0.081063
     15          1           0        3.204163   -4.254333    2.122788
     16          1           0        3.855514   -0.103332    2.620288
     17          1           0        4.332987   -3.593313    4.203055
     18          1           0        3.903963   -1.966111    4.800093
     19          1           0        5.448816   -2.225560    3.927042
 ---------------------------------------------------------------------
                    Distance matrix (angstroms):
                    1          2          3          4          5
     1  C    0.000000
     2  C    1.526944   0.000000
     3  N    2.488686   1.470047   0.000000
     4  C    3.366885   2.542306   1.382047   0.000000
     5  C    4.422532   3.638585   2.210620   1.367179   0.000000
     6  N    4.393869   3.601691   2.179965   2.211996   1.381633
     7  C    3.339250   2.498236   1.341613   2.211791   2.210718
     8  C    5.673844   4.952517   3.595094   3.635277   2.539599
     9  H    1.097372   2.157569   3.426328   4.319611   5.451667
    10  H    1.098796   2.179451   2.773009   3.778517   4.568661
    11  H    1.098881   2.181251   2.770894   3.205526   4.294588
    12  H    2.181940   1.097092   2.077876   3.340263   4.243030
    13  H    2.179332   1.096979   2.072565   2.677367   3.946533
    14  H    3.505201   2.814720   2.148837   1.083005   2.242344
    15  H    5.408103   4.679085   3.279488   2.241579   1.082873
    16  H    3.555288   2.841517   2.160880   3.259479   3.258404
    17  H    6.386041   5.685489   4.247861   3.938562   2.631094
    18  H    5.703843   5.229709   3.994083   4.223088   3.256639
    19  H    6.176707   5.272756   4.013399   4.205068   3.218907
                    6          7          8          9         10
     6  N    0.000000
     7  C    1.341653   0.000000
     8  C    1.464181   2.491024   0.000000
     9  H    5.420301   4.290455   6.693048   0.000000
    10  H    4.266921   3.192993   5.362132   1.779460   0.000000
    11  H    4.549542   3.751532   5.869898   1.779061   1.781742
    12  H    3.904480   2.641550   5.094002   2.514458   2.537176
    13  H    4.208047   3.289554   5.621528   2.512257   3.094934
    14  H    3.281021   3.230975   4.676398   4.320904   4.155474
    15  H    2.147887   3.229733   2.814473   6.440839   5.556781
    16  H    2.160693   1.083506   2.833701   4.374008   3.178114
    17  H    2.086325   3.349400   1.093095   7.442220   6.142821
    18  H    2.105084   2.796618   1.095778   6.714234   5.192328
    19  H    2.108549   2.847726   1.096240   7.122581   5.892438
                   11         12         13         14         15
    11  H    0.000000
    12  H    3.098104   0.000000
    13  H    2.535600   1.770832   0.000000
    14  H    3.117921   3.755782   2.567972   0.000000
    15  H    5.154662   5.312287   4.891221   2.818677   0.000000
    16  H    4.199307   2.598044   3.771794   4.232426   4.231144
    17  H    6.426192   5.957784   6.246419   4.873157   2.457377
    18  H    5.925372   5.336003   6.046041   5.271687   3.590772
    19  H    6.515955   5.213477   5.903990   5.244613   3.522744
                   16         17         18         19
    16  H    0.000000
    17  H    3.861749   0.000000
    18  H    2.867725   1.785582   0.000000
    19  H    2.958052   1.786619   1.793350   0.000000
 Stoichiometry    C6H11N2(1+)
 Framework group  C1[X(C6H11N2)]
 Deg. of freedom    51
 Full point group                 C1      NOp   1
 RotChk:  IX=0 Diff= 2.08D-02
 Largest Abelian subgroup         C1      NOp   1
 Largest concise Abelian subgroup C1      NOp   1
                         Standard orientation:                         
 ---------------------------------------------------------------------
 Center     Atomic      Atomic             Coordinates (Angstroms)
 Number     Number       Type             X           Y           Z
 ---------------------------------------------------------------------
      1          6           0        2.827175   -0.465004    0.690940
      2          6           0        2.044890   -0.171064   -0.587023
      3          7           0        0.631887    0.132228   -0.317812
      4          6           0        0.106415    1.379472   -0.037957
      5          6           0       -1.233162    1.210853    0.177168
      6          7           0       -1.503816   -0.135717    0.027484
      7          6           0       -0.358373   -0.771240   -0.262524
      8          6           0       -2.813190   -0.777312    0.160604
      9          1           0        3.873358   -0.680064    0.439001
     10          1           0        2.413970   -1.336561    1.217250
     11          1           0        2.808753    0.393578    1.376533
     12          1           0        2.067616   -1.023995   -1.276663
     13          1           0        2.459467    0.695511   -1.116679
     14          1           0        0.739306    2.258198   -0.024187
     15          1           0       -2.022956    1.911731    0.417185
     16          1           0       -0.253316   -1.835402   -0.437184
     17          1           0       -3.539568   -0.021105    0.469446
     18          1           0       -2.764820   -1.565333    0.920480
     19          1           0       -3.120833   -1.206366   -0.800131
 ---------------------------------------------------------------------
 Rotational constants (GHZ):           5.0678254           1.2832867           1.1211799
 Leave Link  202 at Tue Mar 10 15:21:41 2020, MaxMem=  6979321856 cpu:               0.1 elap:               0.0
 (Enter /opt/g16/l301.exe)
 Standard basis: def2TZVP (5D, 7F)
 Ernie: Thresh=  0.10000D-02 Tol=  0.10000D-05 Strict=F.
 There are   354 symmetry adapted cartesian basis functions of A   symmetry.
 There are   314 symmetry adapted basis functions of A   symmetry.
   314 basis functions,   496 primitive gaussians,   354 cartesian basis functions
    30 alpha electrons       30 beta electrons
       nuclear repulsion energy       380.2654037912 Hartrees.
 IExCor= 1009 DFT=T Ex=PBE Corr=PBE ExCW=0 ScaHFX=  0.000000
 ScaDFX=  1.000000  1.000000  1.000000  1.000000 ScalE2=  1.000000  1.000000
 IRadAn=      5 IRanWt=     -1 IRanGd=            0 ICorTp=0 IEmpDi=  4
 NAtoms=   19 NActive=   19 NUniq=   19 SFac= 1.00D+00 NAtFMM=   60 NAOKFM=F Big=F
 Integral buffers will be    131072 words long.
 Raffenetti 2 integral format.
 Two-electron integral symmetry is turned on.
 Standard density basis: W06 (5D, 7F)
   513 Density fitting functions
 There are   513 symmetry adapted density basis functions of A   symmetry.
 ------------------------------------------------------------------------------
 Polarizable Continuum Model (PCM)
 =================================
 Model                : C-PCM.
 Atomic radii         : UFF (Universal Force Field).
 Polarization charges : Total charges.
 Charge compensation  : None.
 Solution method      : On-the-fly selection.
 Cavity type          : Scaled VdW (van der Waals Surface) (Alpha=1.100).
 Cavity algorithm     : GePol (No added spheres)
                        Default sphere list used, NSphG=   19.
                        Lebedev-Laikov grids with approx.  5.0 points / Ang**2.
                        Smoothing algorithm: York/Karplus (Gamma=1.0000).
                        Polarization charges: spherical gaussians, with
                                              point-specific exponents (IZeta= 3).
                        Self-potential: point-specific (ISelfS= 7).
                        Self-field    : sphere-specific E.n sum rule (ISelfD= 2).
 1st derivatives      : Analytical E(r).r(x)/FMM algorithm (CHGder, D1EAlg=3).
                        Cavity 1st derivative terms included.
 Solvent              : Generic,
                        Eps                           = 999.000000
                        Eps(infinity)                 =   0.000000
                        RSolv                         =   0.000000 Ang.
                        Molar volume                  =   0.000000 cm**3/mol
                        Thermal expansion coefficient =   0.000000 K**-1
                        Absolute temperature          = 298.150000 K
                        Numeral density               =   0.000000 Ang**-3
                        Hydrogen bond acidity         =   0.000000
                        Hydrogen bond basicity        =   0.000000
                        Surface tension at interface  =   0.000000 (cal/mol)*Ang**-2
                        Carbon aromaticity            =   0.000000
                        Electronegative halogenicity  =   0.000000
 ------------------------------------------------------------------------------
 Spheres list:
[...]
     8  C    1.462554   2.493415   0.000000
     9  H    5.451238   4.360295   6.758208   0.000000
    10  H    4.331286   3.340973   5.488236   1.781040   0.000000
    11  H    4.617145   3.876355   5.984741   1.777443   1.786175
    12  H    3.880080   2.593560   5.060296   2.502922   2.526776
    13  H    4.192451   3.246804   5.589341   2.501573   3.093444
    14  H    3.275326   3.236723   4.663120   4.202893   3.945394
    15  H    2.160528   3.236160   2.824130   6.377168   5.452451
    16  H    2.160026   1.083694   2.839998   4.508260   3.461677
    17  H    2.098507   3.196622   1.095751   7.175614   5.752251
    18  H    2.090037   2.596158   1.093721   6.804054   5.496630
    19  H    2.099431   3.182223   1.095957   7.495456   6.372587
                   11         12         13         14         15
    11  H    0.000000
    12  H    3.095059   0.000000
    13  H    2.535850   1.772990   0.000000
    14  H    2.866702   3.829948   2.714217   0.000000
    15  H    5.060641   5.328407   4.928937   2.782497   0.000000
    16  H    4.405078   2.509624   3.693244   4.241189   4.239930
    17  H    6.231914   5.769071   6.243784   4.996347   2.880280
    18  H    6.286185   4.952866   5.808693   5.354126   3.857770
    19  H    6.707425   5.652849   6.022224   4.995087   2.899392
                   16         17         18         19
    16  H    0.000000
    17  H    3.591684   0.000000
    18  H    2.493662   1.789635   0.000000
    19  H    3.569664   1.793357   1.790190   0.000000
 Stoichiometry    C6H11N2(1+)
 Framework group  C1[X(C6H11N2)]
 Deg. of freedom    51
 Full point group                 C1      NOp   1
 RotChk:  IX=0 Diff= 3.27D-15
 Largest Abelian subgroup         C1      NOp   1
 Largest concise Abelian subgroup C1      NOp   1
                         Standard orientation:                         
 ---------------------------------------------------------------------
 Center     Atomic      Atomic             Coordinates (Angstroms)
 Number     Number       Type             X           Y           Z
 ---------------------------------------------------------------------
      1          6           0        2.867694   -0.284735    0.704796
      2          6           0        2.028786   -0.335183   -0.565587
      3          7           0        0.624350    0.041339   -0.324237
      4          6           0        0.149513    1.323384   -0.125123
      5          6           0       -1.194385    1.223671    0.102199
      6          7           0       -1.517045   -0.118087    0.040996
      7          6           0       -0.401509   -0.815414   -0.217007
      8          6           0       -2.853879   -0.685427    0.214384
      9          1           0        3.898883   -0.573123    0.461298
     10          1           0        2.482669   -0.981608    1.461088
     11          1           0        2.889004    0.726429    1.132575
     12          1           0        2.015297   -1.344182   -0.995474
     13          1           0        2.417040    0.349910   -1.330354
     14          1           0        0.796238    2.191150   -0.168541
     15          1           0       -1.940022    1.985605    0.292893
     16          1           0       -0.339982   -1.892046   -0.324116
     17          1           0       -3.236312   -0.418931    1.206048
     18          1           0       -2.789983   -1.773625    0.125127
     19          1           0       -3.521297   -0.290117   -0.559829
 ---------------------------------------------------------------------
 Rotational constants (GHZ):           5.2699618           1.2656618           1.1159640
 Leave Link  202 at Tue Mar 10 15:34:25 2020, MaxMem=  6979321856 cpu:               0.1 elap:               0.0
 (Enter /opt/g16/l601.exe)
 Copying SCF densities to generalized density rwf, IOpCl= 0 IROHF=0.

 **********************************************************************

            Population analysis using the SCF Density.

 **********************************************************************

 Orbital symmetries:
       Occupied  (A) (A) (A) (A) (A) (A) (A) (A) (A) (A) (A) (A)
                 (A) (A) (A) (A) (A) (A) (A) (A) (A) (A) (A) (A)
                 (A) (A) (A) (A) (A) (A)
       Virtual   (A) (A) (A) (A) (A) (A) (A) (A) (A) (A) (A) (A)
                 (A) (A) (A) (A) (A) (A) (A) (A) (A) (A) (A) (A)
                 (A) (A) (A) (A) (A) (A) (A) (A) (A) (A) (A) (A)
                 (A) (A) (A) (A) (A) (A) (A) (A) (A) (A) (A) (A)
                 (A) (A) (A) (A) (A) (A) (A) (A) (A) (A) (A) (A)
                 (A) (A) (A) (A) (A) (A) (A) (A) (A) (A) (A) (A)
                 (A) (A) (A) (A) (A) (A) (A) (A) (A) (A) (A) (A)
                 (A) (A) (A) (A) (A) (A) (A) (A) (A) (A) (A) (A)
                 (A) (A) (A) (A) (A) (A) (A) (A) (A) (A) (A) (A)
                 (A) (A) (A) (A) (A) (A) (A) (A) (A) (A) (A) (A)
                 (A) (A) (A) (A) (A) (A) (A) (A) (A) (A) (A) (A)
                 (A) (A) (A) (A) (A) (A) (A) (A) (A) (A) (A) (A)
                 (A) (A) (A) (A) (A) (A) (A) (A) (A) (A) (A) (A)
                 (A) (A) (A) (A) (A) (A) (A) (A) (A) (A) (A) (A)
                 (A) (A) (A) (A) (A) (A) (A) (A) (A) (A) (A) (A)
                 (A) (A) (A) (A) (A) (A) (A) (A) (A) (A) (A) (A)
                 (A) (A) (A) (A) (A) (A) (A) (A) (A) (A) (A) (A)
                 (A) (A) (A) (A) (A) (A) (A) (A) (A) (A) (A) (A)
                 (A) (A) (A) (A) (A) (A) (A) (A) (A) (A) (A) (A)
                 (A) (A) (A) (A) (A) (A) (A) (A) (A) (A) (A) (A)
                 (A) (A) (A) (A) (A) (A) (A) (A) (A) (A) (A) (A)
                 (A) (A) (A) (A) (A) (A) (A) (A) (A) (A) (A) (A)
                 (A) (A) (A) (A) (A) (A) (A) (A) (A) (A) (A) (A)
                 (A) (A) (A) (A) (A) (A) (A) (A)
 The electronic state is 1-A.
 Alpha  occ. eigenvalues --  -14.09906 -14.09590  -9.99386  -9.95279  -9.95218
 Alpha  occ. eigenvalues --   -9.95051  -9.94339  -9.89164  -1.00599  -0.89620
 Alpha  occ. eigenvalues --   -0.75381  -0.72418  -0.68165  -0.61875  -0.59159
 Alpha  occ. eigenvalues --   -0.56949  -0.51804  -0.47164  -0.45394  -0.44524
 Alpha  occ. eigenvalues --   -0.43739  -0.42433  -0.41082  -0.40345  -0.37914
 Alpha  occ. eigenvalues --   -0.36420  -0.34891  -0.32882  -0.29021  -0.25792
 Alpha virt. eigenvalues --   -0.06999  -0.04261   0.01436   0.02242   0.03315
 Alpha virt. eigenvalues --    0.04129   0.05075   0.05987   0.06418   0.07760
 Alpha virt. eigenvalues --    0.08185   0.08981   0.09624   0.09635   0.10453
 Alpha virt. eigenvalues --    0.10930   0.13043   0.13627   0.15512   0.16439
 Alpha virt. eigenvalues --    0.17756   0.18614   0.19397   0.20028   0.21341
 Alpha virt. eigenvalues --    0.21840   0.22811   0.24353   0.24848   0.26719
 Alpha virt. eigenvalues --    0.27567   0.28740   0.31647   0.32064   0.33853
 Alpha virt. eigenvalues --    0.34593   0.35084   0.36633   0.36760   0.37207
 Alpha virt. eigenvalues --    0.38521   0.39083   0.39604   0.40772   0.41215
 Alpha virt. eigenvalues --    0.41884   0.42532   0.43556   0.45116   0.45872
 Alpha virt. eigenvalues --    0.46526   0.46816   0.47761   0.49638   0.50272
 Alpha virt. eigenvalues --    0.53652   0.54309   0.55539   0.57254   0.60004
 Alpha virt. eigenvalues --    0.62539   0.64557   0.65347   0.66513   0.66621
 Alpha virt. eigenvalues --    0.68627   0.72793   0.73558   0.75806   0.76725
 Alpha virt. eigenvalues --    0.78758   0.80595   0.83920   0.86368   0.87006
 Alpha virt. eigenvalues --    0.88299   0.90866   0.93126   0.94870   0.96101
 Alpha virt. eigenvalues --    0.97962   0.99416   1.00225   1.02444   1.04614
 Alpha virt. eigenvalues --    1.06448   1.07497   1.08962   1.09150   1.12755
 Alpha virt. eigenvalues --    1.15954   1.19096   1.24537   1.25597   1.26488
 Alpha virt. eigenvalues --    1.29451   1.30779   1.35131   1.37805   1.40148
 Alpha virt. eigenvalues --    1.40905   1.42351   1.42757   1.43726   1.44189
 Alpha virt. eigenvalues --    1.46293   1.46716   1.48629   1.49437   1.49702
 Alpha virt. eigenvalues --    1.52629   1.53280   1.53692   1.54951   1.55224
 Alpha virt. eigenvalues --    1.56515   1.59369   1.62809   1.64284   1.65572
 Alpha virt. eigenvalues --    1.69468   1.70920   1.74326   1.74958   1.77436
 Alpha virt. eigenvalues --    1.81307   1.81644   1.82455   1.85020   1.87286
 Alpha virt. eigenvalues --    1.88249   1.89394   1.93359   1.94888   1.96968
 Alpha virt. eigenvalues --    2.01937   2.02340   2.05557   2.11789   2.13239
 Alpha virt. eigenvalues --    2.13503   2.15677   2.18686   2.19445   2.20662
 Alpha virt. eigenvalues --    2.21768   2.23494   2.23983   2.26214   2.26772
 Alpha virt. eigenvalues --    2.29373   2.30802   2.32378   2.35795   2.36627
 Alpha virt. eigenvalues --    2.38772   2.41510   2.42657   2.44296   2.46274
 Alpha virt. eigenvalues --    2.49305   2.49424   2.49880   2.51097   2.52550
 Alpha virt. eigenvalues --    2.53702   2.54524   2.57611   2.58081   2.63148
 Alpha virt. eigenvalues --    2.67663   2.68572   2.69249   2.69452   2.74559
 Alpha virt. eigenvalues --    2.77015   2.79306   2.80300   2.82286   2.84535
 Alpha virt. eigenvalues --    2.85916   2.86395   2.87719   2.90395   2.90845
 Alpha virt. eigenvalues --    2.93501   2.94808   2.97821   2.98008   3.00768
 Alpha virt. eigenvalues --    3.01567   3.03301   3.05451   3.06178   3.08422
 Alpha virt. eigenvalues --    3.09280   3.12088   3.12374   3.13810   3.18471
 Alpha virt. eigenvalues --    3.19058   3.21009   3.21811   3.23280   3.24718
 Alpha virt. eigenvalues --    3.25760   3.27416   3.29900   3.33055   3.34118
 Alpha virt. eigenvalues --    3.36009   3.36699   3.38252   3.39649   3.40524
 Alpha virt. eigenvalues --    3.42956   3.47486   3.48781   3.52157   3.54822
 Alpha virt. eigenvalues --    3.57124   3.59683   3.63609   3.67498   3.70282
 Alpha virt. eigenvalues --    3.71559   3.72805   3.77961   3.80346   3.83749
 Alpha virt. eigenvalues --    3.88154   3.90528   3.94195   4.05011   4.05323
 Alpha virt. eigenvalues --    4.10026   4.10282   4.11976   4.12785   4.15593
 Alpha virt. eigenvalues --    4.17606   4.26210   4.28033   4.29293   4.34338
 Alpha virt. eigenvalues --    4.36938   4.41913   4.51018   4.57360   4.59565
 Alpha virt. eigenvalues --    4.63367   4.68292   4.70174   4.77466   4.78380
 Alpha virt. eigenvalues --    4.82129   4.88182   4.92132   4.94551   5.00516
 Alpha virt. eigenvalues --    5.04287   5.05893   5.11334   5.15090   5.19059
 Alpha virt. eigenvalues --    5.22271   5.28213   5.36305   5.41875   5.54762
 Alpha virt. eigenvalues --    5.58798   5.61600   5.68785   5.84997   5.90295
 Alpha virt. eigenvalues --    5.98838  22.02113  22.06393  22.11043  22.23828
 Alpha virt. eigenvalues --   22.55904  22.62594  32.44900  32.57771
          Condensed to atoms (all electrons):
               1          2          3          4          5          6
     1  C    4.934173   0.355435  -0.048580  -0.001947   0.001811  -0.000393
     2  C    0.355435   4.869506   0.306170  -0.044811   0.006230   0.004959
     3  N   -0.048580   0.306170   6.029316   0.396705  -0.056671  -0.078583
     4  C   -0.001947  -0.044811   0.396705   4.972512   0.541603  -0.058201
     5  C    0.001811   0.006230  -0.056671   0.541603   4.971298   0.401625
     6  N   -0.000393   0.004959  -0.078583  -0.058201   0.401625   6.019794
     7  C   -0.002905  -0.034685   0.457606  -0.107036  -0.118170   0.468174
     8  C    0.000023  -0.000110   0.005615   0.003598  -0.045400   0.301003
     9  H    0.392249  -0.027877   0.005907   0.000145  -0.000066   0.000008
    10  H    0.397740  -0.034913   0.000549  -0.000288  -0.000244  -0.000258
    11  H    0.405118  -0.037084  -0.001955   0.003371   0.000463   0.000031
    12  H   -0.027736   0.393230  -0.027319   0.005639   0.000120   0.000376
    13  H   -0.038292   0.402410  -0.029195  -0.005664   0.001099  -0.000267
    14  H   -0.001422  -0.000591  -0.031185   0.418183  -0.033297   0.003464
    15  H    0.000036  -0.000166   0.003359  -0.032141   0.417706  -0.029626
    16  H   -0.000269  -0.001808  -0.024517   0.006174   0.004949  -0.023804
    17  H   -0.000007  -0.000012  -0.000039   0.000185  -0.003457  -0.032399
    18  H   -0.000000  -0.000040   0.000154   0.000474   0.005389  -0.026102
    19  H    0.000002   0.000024  -0.000174   0.000414  -0.004003  -0.032389
               7          8          9         10         11         12
     1  C   -0.002905   0.000023   0.392249   0.397740   0.405118  -0.027736
     2  C   -0.034685  -0.000110  -0.027877  -0.034913  -0.037084   0.393230
     3  N    0.457606   0.005615   0.005907   0.000549  -0.001955  -0.027319
     4  C   -0.107036   0.003598   0.000145  -0.000288   0.003371   0.005639
     5  C   -0.118170  -0.045400  -0.000066  -0.000244   0.000463   0.000120
     6  N    0.468174   0.301003   0.000008  -0.000258   0.000031   0.000376
     7  C    4.962306  -0.040911  -0.000127   0.002844  -0.000377  -0.003743
     8  C   -0.040911   4.887109  -0.000000   0.000012   0.000002  -0.000029
     9  H   -0.000127  -0.000000   0.530175  -0.018831  -0.020401  -0.003154
    10  H    0.002844   0.000012  -0.018831   0.535979  -0.022741  -0.004796
    11  H   -0.000377   0.000002  -0.020401  -0.022741   0.530916   0.005950
    12  H   -0.003743  -0.000029  -0.003154  -0.004796   0.005950   0.527889
    13  H    0.003528   0.000018  -0.001883   0.006574  -0.004719  -0.021771
    14  H    0.007270  -0.000171   0.000013   0.000043   0.000574   0.000167
    15  H    0.006744  -0.000928  -0.000001  -0.000001   0.000018   0.000021
    16  H    0.402584  -0.003749  -0.000011   0.000304  -0.000023   0.000432
    17  H    0.001042   0.403152   0.000000   0.000003   0.000000   0.000002
    18  H   -0.005335   0.395776  -0.000000   0.000002   0.000000   0.000005
    19  H    0.001059   0.403102  -0.000000  -0.000001  -0.000000  -0.000002
              13         14         15         16         17         18
     1  C   -0.038292  -0.001422   0.000036  -0.000269  -0.000007  -0.000000
     2  C    0.402410  -0.000591  -0.000166  -0.001808  -0.000012  -0.000040
     3  N   -0.029195  -0.031185   0.003359  -0.024517  -0.000039   0.000154
     4  C   -0.005664   0.418183  -0.032141   0.006174   0.000185   0.000474
     5  C    0.001099  -0.033297   0.417706   0.004949  -0.003457   0.005389
     6  N   -0.000267   0.003464  -0.029626  -0.023804  -0.032399  -0.026102
     7  C    0.003528   0.007270   0.006744   0.402584   0.001042  -0.005335
     8  C    0.000018  -0.000171  -0.000928  -0.003749   0.403152   0.395776
     9  H   -0.001883   0.000013  -0.000001  -0.000011   0.000000  -0.000000
    10  H    0.006574   0.000043  -0.000001   0.000304   0.000003   0.000002
    11  H   -0.004719   0.000574   0.000018  -0.000023   0.000000   0.000000
    12  H   -0.021771   0.000167   0.000021   0.000432   0.000002   0.000005
    13  H    0.531978   0.000186  -0.000015   0.000188   0.000001   0.000001
    14  H    0.000186   0.447709  -0.001588  -0.000063  -0.000015   0.000018
    15  H   -0.000015  -0.001588   0.448800  -0.000094   0.000277   0.000000
    16  H    0.000188  -0.000063  -0.000094   0.422756   0.000046   0.001053
    17  H    0.000001  -0.000015   0.000277   0.000046   0.503625  -0.018045
    18  H    0.000001   0.000018   0.000000   0.001053  -0.018045   0.494471
    19  H   -0.000003  -0.000010   0.000061   0.000097  -0.027284  -0.018088
              19
     1  C    0.000002
     2  C    0.000024
     3  N   -0.000174
     4  C    0.000414
     5  C   -0.004003
     6  N   -0.032389
     7  C    0.001059
     8  C    0.403102
     9  H   -0.000000
    10  H   -0.000001
    11  H   -0.000000
    12  H   -0.000002
    13  H   -0.000003
    14  H   -0.000010
    15  H    0.000061
    16  H    0.000097
    17  H   -0.027284
    18  H   -0.018088
    19  H    0.504321
 Mulliken charges:
               1
     1  C   -0.365037
     2  C   -0.155867
     3  N    0.092834
     4  C   -0.098916
     5  C   -0.090985
     6  N    0.082589
     7  C    0.000133
     8  C   -0.308113
     9  H    0.143855
    10  H    0.138025
    11  H    0.140858
    12  H    0.154718
    13  H    0.155827
    14  H    0.190717
    15  H    0.187541
    16  H    0.215756
    17  H    0.172925
    18  H    0.170267
    19  H    0.172873
 Sum of Mulliken charges =   1.00000
 Mulliken charges with hydrogens summed into heavy atoms:
               1
     1  C    0.057701
     2  C    0.154678
     3  N    0.092834
     4  C    0.091801
     5  C    0.096555
     6  N    0.082589
     7  C    0.215890
     8  C    0.207952
 Electronic spatial extent (au):  <R**2>=           1108.2480
 Charge=              1.0000 electrons
 Dipole moment (field-independent basis, Debye):
    X=             -1.7804    Y=             -0.8081    Z=             -0.5062  Tot=              2.0196
 Quadrupole moment (field-independent basis, Debye-Ang):
   XX=            -23.7667   YY=            -36.2839   ZZ=            -47.2805
   XY=              1.1116   XZ=             -2.8214   YZ=              0.8221
 Traceless Quadrupole moment (field-independent basis, Debye-Ang):
   XX=             12.0103   YY=             -0.5069   ZZ=            -11.5034
   XY=              1.1116   XZ=             -2.8214   YZ=              0.8221
 Octapole moment (field-independent basis, Debye-Ang**2):
  XXX=            -23.9165  YYY=              0.7298  ZZZ=             -0.6948  XYY=             -5.6884
  XXY=             -4.6937  XXZ=              0.4577  XZZ=             -0.2930  YZZ=             -2.1831
  YYZ=             -1.3158  XYZ=             -0.6049
 Hexadecapole moment (field-independent basis, Debye-Ang**3):
 XXXX=           -906.5267 YYYY=           -210.5739 ZZZZ=           -116.2983 XXXY=              4.1849
 XXXZ=            -17.7621 YYYX=              6.4821 YYYZ=              5.8385 ZZZX=             -8.7175
 ZZZY=             -0.9877 XXYY=           -198.4497 XXZZ=           -190.7460 YYZZ=            -64.5113
 XXYZ=              0.9030 YYXZ=             -5.2039 ZZXY=              0.9411
 N-N= 3.802616724479D+02 E-N=-1.548471655609D+03  KE= 3.425605586618D+02
 No NMR shielding tensors so no spin-rotation constants.
 Leave Link  601 at Tue Mar 10 15:34:25 2020, MaxMem=  6979321856 cpu:               2.5 elap:               0.2
 (Enter /opt/g16/l9999.exe)

 Test job not archived.
 1\1\GINC-OBELIX\FOpt\RPBEPBE\def2TZVP/W06\C6H11N2(1+)\MTMJEA001\10-Mar
 -2020\0\\#p pbepbe/def2tzvp/w06 opt scrf(cpcm,solvent=generic,read)\\c
 1c2im\\1,1\C,0.9856773421,0.3098430552,0.3780181741\C,2.4729423045,0.0
 157201371,0.2306408174\N,2.9053331119,-1.1167404538,1.0691103338\C,2.6
 698160288,-2.4538012783,0.8130719557\C,3.2001803059,-3.1621611423,1.85
 45222408\N,3.7480876543,-2.2453514011,2.7305517049\C,3.5574390557,-1.0
 138817488,2.2361957364\C,4.4345973985,-2.5625802647,3.982403794\H,0.72
 5553879,1.1584615267,-0.2685049231\H,0.7354597652,0.5743687943,1.41400
 59231\H,0.3738167172,-0.549846406,0.0739405724\H,3.0819703126,0.878327
 663,0.527386636\H,2.7313627435,-0.2364242205,-0.8059904308\H,2.1579258
 847,-2.7883635038,-0.0809043142\H,3.2395590931,-4.2284150947,2.0400890
 207\H,3.8796156267,-0.0895338146,2.7011436031\H,3.7518828733,-3.107954
 6976,4.6435684722\H,4.7437594777,-1.6294517415,4.4618982409\H,5.316180
 4255,-3.1778454087,3.7693724427\\Version=ES64L-G16RevC.01\State=1-A\HF
 =-344.2996374\RMSD=3.921e-09\RMSF=1.118e-05\Dipole=0.602816,-0.1169886
 ,0.5042736\Quadrupole=-4.7298913,2.1423414,2.58755,-1.9604906,6.867869
 2,-3.7586619\PG=C01 [X(C6H11N2)]\\@


 I CLAIM NOT TO HAVE CONTROLLED EVENTS,
 BUT CONFESS PLAINLY THAT EVENTS HAVE CONTROLLED ME.

                                         A. LINCOLN
 Job cpu time:       0 days  2 hours 37 minutes 33.6 seconds.
 Elapsed time:       0 days  0 hours 13 minutes 19.9 seconds.
 File lengths (MBytes):  RWF=     93 Int=      0 D2E=      0 Chk=     12 Scr=      1
 Normal termination of Gaussian 16 at Tue Mar 10 15:34:25 2020.
