 Entering Gaussian System, Link 0=g16
 Input=ncn2.gjf
 Output=ncn2.log
 Initial command:
 /opt/g16/l1.exe "/scratch/mtmjea001/volumes/ncn2/Gau-25272.inp" -scrdir="/scratch/mtmjea001/volumes/ncn2/"
 Entering Link 1 = /opt/g16/l1.exe PID=     25273.
  
 Copyright (c) 1988-2019, Gaussian, Inc.  All Rights Reserved.
  
 This is part of the Gaussian(R) 16 program.  It is based on
 the Gaussian(R) 09 system (copyright 2009, Gaussian, Inc.),
 the Gaussian(R) 03 system (copyright 2003, Gaussian, Inc.),
 the Gaussian(R) 98 system (copyright 1998, Gaussian, Inc.),
 the Gaussian(R) 94 system (copyright 1995, Gaussian, Inc.),
 the Gaussian 92(TM) system (copyright 1992, Gaussian, Inc.),
 the Gaussian 90(TM) system (copyright 1990, Gaussian, Inc.),
 the Gaussian 88(TM) system (copyright 1988, Gaussian, Inc.),
 the Gaussian 86(TM) system (copyright 1986, Carnegie Mellon
 University), and the Gaussian 82(TM) system (copyright 1983,
 Carnegie Mellon University). Gaussian is a federally registered
 trademark of Gaussian, Inc.
  
 This software contains proprietary and confidential information,
 including trade secrets, belonging to Gaussian, Inc.
  
 This software is provided under written license and may be
 used, copied, transmitted, or stored only in accord with that
 written license.
  
 The following legend is applicable only to US Government
 contracts under FAR:
  
                    RESTRICTED RIGHTS LEGEND
  
 Use, reproduction and disclosure by the US Government is
 subject to restrictions as set forth in subparagraphs (a)
 and (c) of the Commercial Computer Software - Restricted
 Rights clause in FAR 52.227-19.
  
 Gaussian, Inc.
 340 Quinnipiac St., Bldg. 40, Wallingford CT 06492
  
  
 ---------------------------------------------------------------
 Warning -- This program may not be used in any manner that
 competes with the business of Gaussian, Inc. or will provide
 assistance to any competitor of Gaussian, Inc.  The licensee
 of this program is prohibited from giving any competitor of
 Gaussian, Inc. access to this program.  By using this program,
 the user acknowledges that Gaussian, Inc. is engaged in the
 business of creating and licensing software in the field of
 computational chemistry and represents and warrants to the
 licensee that it is not a competitor of Gaussian, Inc. and that
 it will not use this program in any manner prohibited above.
 ---------------------------------------------------------------
  

 Cite this work as:
 Gaussian 16, Revision C.01,
 M. J. Frisch, G. W. Trucks, H. B. Schlegel, G. E. Scuseria, 
 M. A. Robb, J. R. Cheeseman, G. Scalmani, V. Barone, 
 G. A. Petersson, H. Nakatsuji, X. Li, M. Caricato, A. V. Marenich, 
 J. Bloino, B. G. Janesko, R. Gomperts, B. Mennucci, H. P. Hratchian, 
 J. V. Ortiz, A. F. Izmaylov, J. L. Sonnenberg, D. Williams-Young, 
 F. Ding, F. Lipparini, F. Egidi, J. Goings, B. Peng, A. Petrone, 
 T. Henderson, D. Ranasinghe, V. G. Zakrzewski, J. Gao, N. Rega, 
 G. Zheng, W. Liang, M. Hada, M. Ehara, K. Toyota, R. Fukuda, 
 J. Hasegawa, M. Ishida, T. Nakajima, Y. Honda, O. Kitao, H. Nakai, 
 T. Vreven, K. Throssell, J. A. Montgomery, Jr., J. E. Peralta, 
 F. Ogliaro, M. J. Bearpark, J. J. Heyd, E. N. Brothers, K. N. Kudin, 
 V. N. Staroverov, T. A. Keith, R. Kobayashi, J. Normand, 
 K. Raghavachari, A. P. Rendell, J. C. Burant, S. S. Iyengar, 
 J. Tomasi, M. Cossi, J. M. Millam, M. Klene, C. Adamo, R. Cammi, 
 J. W. Ochterski, R. L. Martin, K. Morokuma, O. Farkas, 
 J. B. Foresman, and D. J. Fox, Gaussian, Inc., Wallingford CT, 2019.
 
 ******************************************
 Gaussian 16:  ES64L-G16RevC.01  3-Jul-2019
                10-Mar-2020 
 ******************************************
 %chk=ncn2.chk
 %mem=56Gb
 %nprocs=12
 Will use up to   12 processors via shared memory.
 Default route: test
 ----------------------------------------------------------
 #p pbepbe/def2tzvp/w06 opt scrf(cpcm,solvent=generic,read)
 ----------------------------------------------------------
 1/18=20,19=15,26=3,38=1,40=2/1,3;
 2/9=110,12=2,17=6,18=5,40=1/2;
 3/5=44,7=101,11=2,25=1,30=1,70=2103,71=1,72=-2,74=1009,82=40/1,2,3;
 4//1;
 5/5=2,38=5/2;
 6/7=2,8=2,9=2,10=2,28=1/1;
 7//1,2,3,16;
 1/18=20,19=15,26=3/3(2);
 2/9=110/2;
 99//99;
 2/9=110/2;
 3/5=44,7=101,11=2,25=1,30=1,70=2105,71=1,72=-2,74=1009,82=40/1,2,3;
 4/5=5,16=3,69=1/1;
 5/5=2,38=5/2;
 7//1,2,3,16;
 1/18=20,19=15,26=3/3(-5);
 2/9=110/2;
 6/7=2,8=2,9=2,10=2,19=2,28=1/1;
 99/9=1/99;
 Leave Link    1 at Tue Mar 10 14:50:03 2020, MaxMem=  7516192768 cpu:               0.6 elap:               0.1
 (Enter /opt/g16/l101.exe)
 ----
 ncn2
 ----
 Symbolic Z-matrix:
 Charge = -1 Multiplicity = 1
 C                     1.05635  -0.17363  -0.00755 
 N                    -0.10305  -0.23843  -0.00088 
 N                     2.50475  -0.04456  -0.02084 
 C                     3.11689  -1.3567    0.11428 
 N                     3.64665  -2.38461   0.22014 
 
 ITRead=  0  0  0  0  0
 MicOpt= -1 -1 -1 -1 -1
 NAtoms=      5 NQM=        5 NQMF=       0 NMMI=      0 NMMIF=      0
                NMic=       0 NMicF=      0.
                    Isotopes and Nuclear Properties:
 (Nuclear quadrupole moments (NQMom) in fm**2, nuclear magnetic moments (NMagM)
  in nuclear magnetons)

  Atom         1           2           3           4           5
 IAtWgt=          12          14          14          12          14
 AtmWgt=  12.0000000  14.0030740  14.0030740  12.0000000  14.0030740
 NucSpn=           0           2           2           0           2
 AtZEff=  -0.0000000  -0.0000000  -0.0000000  -0.0000000  -0.0000000
 NQMom=    0.0000000   2.0440000   2.0440000   0.0000000   2.0440000
 NMagM=    0.0000000   0.4037610   0.4037610   0.0000000   0.4037610
 AtZNuc=   6.0000000   7.0000000   7.0000000   6.0000000   7.0000000
 Leave Link  101 at Tue Mar 10 14:50:04 2020, MaxMem=  7516192768 cpu:               3.4 elap:               0.3
 (Enter /opt/g16/l103.exe)

 GradGradGradGradGradGradGradGradGradGradGradGradGradGradGradGradGradGrad
 Berny optimization.
 Initialization pass.
                           ----------------------------
                           !    Initial Parameters    !
                           ! (Angstroms and Degrees)  !
 --------------------------                            --------------------------
 ! Name  Definition              Value          Derivative Info.                !
 --------------------------------------------------------------------------------
 ! R1    R(1,2)                  1.1612         estimate D2E/DX2                !
 ! R2    R(1,3)                  1.4542         estimate D2E/DX2                !
 ! R3    R(3,4)                  1.4542         estimate D2E/DX2                !
 ! R4    R(4,5)                  1.1612         estimate D2E/DX2                !
 ! A1    A(1,3,4)              109.7753         estimate D2E/DX2                !
 ! A2    L(2,1,3,5,-1)         181.9032         estimate D2E/DX2                !
 ! A3    L(3,4,5,2,-1)         182.2482         estimate D2E/DX2                !
 ! A4    L(2,1,3,5,-2)         179.9999         estimate D2E/DX2                !
 ! A5    L(3,4,5,2,-2)         180.0006         estimate D2E/DX2                !
 --------------------------------------------------------------------------------
 Trust Radius=3.00D-01 FncErr=1.00D-07 GrdErr=1.00D-06 EigMax=2.50D+02 EigMin=1.00D-04
 Number of steps in this run=     20 maximum allowed number of steps=    100.
 GradGradGradGradGradGradGradGradGradGradGradGradGradGradGradGradGradGrad

 Leave Link  103 at Tue Mar 10 14:50:04 2020, MaxMem=  7516192768 cpu:               0.1 elap:               0.0
 (Enter /opt/g16/l202.exe)
                          Input orientation:                          
 ---------------------------------------------------------------------
 Center     Atomic      Atomic             Coordinates (Angstroms)
 Number     Number       Type             X           Y           Z
 ---------------------------------------------------------------------
      1          6           0        1.056350   -0.173630   -0.007550
      2          7           0       -0.103050   -0.238430   -0.000880
      3          7           0        2.504750   -0.044560   -0.020840
      4          6           0        3.116890   -1.356700    0.114280
      5          7           0        3.646650   -2.384610    0.220140
 ---------------------------------------------------------------------
                    Distance matrix (angstroms):
                    1          2          3          4          5
     1  C    0.000000
     2  N    1.161229   0.000000
     3  N    1.454200   2.615073   0.000000
     4  C    2.379143   3.410543   1.454195   0.000000
     5  N    3.413199   4.326105   2.614927   1.161228   0.000000
 Stoichiometry    C2N3(1-)
 Framework group  C1[X(C2N3)]
 Deg. of freedom     9
 Full point group                 C1      NOp   1
 Largest Abelian subgroup         C1      NOp   1
 Largest concise Abelian subgroup C1      NOp   1
                         Standard orientation:                         
 ---------------------------------------------------------------------
 Center     Atomic      Atomic             Coordinates (Angstroms)
 Number     Number       Type             X           Y           Z
 ---------------------------------------------------------------------
      1          6           0       -1.190286    0.092375    0.000001
      2          7           0       -2.162514   -0.542625   -0.000001
      3          7           0        0.000148    0.927579    0.000001
      4          6           0        1.188856    0.089929   -0.000004
      5          7           0        2.163592   -0.541214    0.000002
 ---------------------------------------------------------------------
 Rotational constants (GHZ):          24.6857556           3.0629590           2.7248634
 Leave Link  202 at Tue Mar 10 14:50:04 2020, MaxMem=  7516192768 cpu:               0.1 elap:               0.0
 (Enter /opt/g16/l301.exe)
 Standard basis: def2TZVP (5D, 7F)
 Ernie: Thresh=  0.10000D-02 Tol=  0.10000D-05 Strict=F.
 There are   180 symmetry adapted cartesian basis functions of A   symmetry.
 There are   155 symmetry adapted basis functions of A   symmetry.
   155 basis functions,   255 primitive gaussians,   180 cartesian basis functions
    17 alpha electrons       17 beta electrons
       nuclear repulsion energy       115.7073011042 Hartrees.
 IExCor= 1009 DFT=T Ex=PBE Corr=PBE ExCW=0 ScaHFX=  0.000000
 ScaDFX=  1.000000  1.000000  1.000000  1.000000 ScalE2=  1.000000  1.000000
 IRadAn=      5 IRanWt=     -1 IRanGd=            0 ICorTp=0 IEmpDi=  4
 NAtoms=    5 NActive=    5 NUniq=    5 SFac= 1.00D+00 NAtFMM=   60 NAOKFM=F Big=F
 Integral buffers will be    131072 words long.
 Raffenetti 2 integral format.
 Two-electron integral symmetry is turned on.
 Standard density basis: W06 (5D, 7F)
   245 Density fitting functions
 There are   245 symmetry adapted density basis functions of A   symmetry.
 Using the following non-standard input for PCM:
 eps=999.0
 --- end of non-standard input.
 ------------------------------------------------------------------------------
 Polarizable Continuum Model (PCM)
 =================================
 Model                : C-PCM.
 Atomic radii         : UFF (Universal Force Field).
 Polarization charges : Total charges.
 Charge compensation  : None.
 Solution method      : On-the-fly selection.
 Cavity type          : Scaled VdW (van der Waals Surface) (Alpha=1.100).
 Cavity algorithm     : GePol (No added spheres)
                        Default sphere list used, NSphG=    5.
                        Lebedev-Laikov grids with approx.  5.0 points / Ang**2.
                        Smoothing algorithm: York/Karplus (Gamma=1.0000).
                        Polarization charges: spherical gaussians, with
                                              point-specific exponents (IZeta= 3).
                        Self-potential: point-specific (ISelfS= 7).
                        Self-field    : sphere-specific E.n sum rule (ISelfD= 2).
 1st derivatives      : Analytical E(r).r(x)/FMM algorithm (CHGder, D1EAlg=3).
                        Cavity 1st derivative terms included.
 Solvent              : Generic,
                        Eps                           = 999.000000
                        Eps(infinity)                 =   0.000000
                        RSolv                         =   0.000000 Ang.
                        Molar volume                  =   0.000000 cm**3/mol
                        Thermal expansion coefficient =   0.000000 K**-1
                        Absolute temperature          = 298.150000 K
                        Numeral density               =   0.000000 Ang**-3
                        Hydrogen bond acidity         =   0.000000
                        Hydrogen bond basicity        =   0.000000
                        Surface tension at interface  =   0.000000 (cal/mol)*Ang**-2
                        Carbon aromaticity            =   0.000000
                        Electronegative halogenicity  =   0.000000
 ------------------------------------------------------------------------------
 Spheres list:
 ISph  on   Nord     Re0    Alpha      Xe            Ye            Ze
    1   C      1    1.9255  1.100     -1.190286      0.092375      0.000001
    2   N      2    1.8300  1.100     -2.162514     -0.542625     -0.000001
    3   N      3    1.8300  1.100      0.000148      0.927579      0.000001
    4   C      4    1.9255  1.100      1.188856      0.089929     -0.000004
    5   N      5    1.8300  1.100      2.163592     -0.541214      0.000002
 ------------------------------------------------------------------------------
 GePol: Number of generator spheres                  =       5
 GePol: Total number of spheres                      =       5
 GePol: Number of exposed spheres                    =       5 (100.00%)
 GePol: Number of points                             =     791
 GePol: Average weight of points                     =       0.15
 GePol: Minimum weight of points                     =   0.21D-04
 GePol: Maximum weight of points                     =    0.20577
 GePol: Number of points with low weight             =      26
 GePol: Fraction of low-weight points (<1% of avg)   =       3.29%
 GePol: Cavity surface area                          =    117.086 Ang**2
 GePol: Cavity volume                                =    101.307 Ang**3
 Leave Link  301 at Tue Mar 10 14:50:04 2020, MaxMem=  7516192768 cpu:               0.8 elap:               0.1
 (Enter /opt/g16/l302.exe)
 NPDir=0 NMtPBC=     1 NCelOv=     1 NCel=       1 NClECP=     1 NCelD=      1
         NCelK=      1 NCelE2=     1 NClLst=     1 CellRange=     0.0.
 One-electron integrals computed using PRISM.
 One-electron integral symmetry used in STVInt
   1 Symmetry operations used in ECPInt.
 ECPInt:  NShTT=    1540 NPrTT=    5160 LenC2=    1508 LenP2D=    4174.
 LDataN:  DoStor=T MaxTD1= 6 Len=  172
 NBasis=   155 RedAO= T EigKep=  2.49D-04  NBF=   155
 NBsUse=   155 1.00D-06 EigRej= -1.00D+00 NBFU=   155
 NBasis=      155 NBas6D=      180 NTT=       12090   NTT6D=    16290
 NDBShl=       75 NDBF=        245 NDBF6D=      305  NNucDB=        0
 IDenFi=        2 ISolve=        0 FullAP=F BlkAPC=T NucTyp=        0
 TolInv= 1.00D-06 TolIt=  1.00D-10 IR12=0.
 FoFCou: FMM=F IPFlag=           0 FMFlag=           0 FMFlg1=           0
         NFxFlg=           0 DoJE=F BraDBF=T KetDBF=T FulRan=T
         wScrn=  0.000000 ICntrl=       600 IOpCl=  3 I1Cent=           6 NGrid=           0
         NMat0=    1 NMatS0=    305 NMatT0=    0 NMatD0=    1 NMtDS0=    0 NMtDT0=    0
 Petite list used in FoFCou.
 DBF EigKep=  9.63D-06 EigRej= -1.00D+00
 NDBF=    245  NBFD=   245
 NRank=   245 NBFDU=   245
 S*AI*S=  5.98884671316    
 Precomputing XC quadrature grid using
 IXCGrd= 4 IRadAn=           5 IRanWt=          -1 IRanGd=           0 AccXCQ= 0.00D+00.
 Generated NRdTot=       0 NPtTot=           0 NUsed=           0 NTot=          32
 NSgBfM=   178   178   178   178   178 MxSgAt=     5 MxSgA2=     5.
 Leave Link  302 at Tue Mar 10 14:50:04 2020, MaxMem=  7516192768 cpu:               3.2 elap:               0.3
 (Enter /opt/g16/l303.exe)
 DipDrv:  MaxL=1.
 Leave Link  303 at Tue Mar 10 14:50:04 2020, MaxMem=  7516192768 cpu:               0.3 elap:               0.0
 (Enter /opt/g16/l401.exe)
 ExpMin= 9.52D-02 ExpMax= 1.97D+04 ExpMxC= 6.73D+02 IAcc=3 IRadAn=         5 AccDes= 0.00D+00
 Harris functional with IExCor= 1009 and IRadAn=       5 diagonalized for initial guess.
 HarFok:  IExCor= 1009 AccDes= 0.00D+00 IRadAn=         5 IDoV= 1 UseB2=F ITyADJ=14
 ICtDFT=  3500011 ScaDFX=  1.000000  1.000000  1.000000  1.000000
 FoFCou: FMM=F IPFlag=           0 FMFlag=      100000 FMFlg1=           0
         NFxFlg=           0 DoJE=T BraDBF=F KetDBF=T FulRan=T
         wScrn=  0.000000 ICntrl=       500 IOpCl=  0 I1Cent=   200000004 NGrid=           0
         NMat0=    1 NMatS0=      1 NMatT0=    0 NMatD0=    1 NMtDS0=    0 NMtDT0=    0
 Petite list used in FoFCou.
 Harris En= -240.463683434399    
 JPrj=0 DoOrth=F DoCkMO=F.
 Leave Link  401 at Tue Mar 10 14:50:05 2020, MaxMem=  7516192768 cpu:               4.0 elap:               0.4
 (Enter /opt/g16/l502.exe)
 Density fitting will be used, IDenFit= 2 NucTyp=  0.
 Integral symmetry usage will be decided dynamically.
 Closed shell SCF:
 Using DIIS extrapolation, IDIIS=  1040.
 NGot=  7516192768 LenX=  7516124027 LenY=  7516091186
 Requested convergence on RMS density matrix=1.00D-08 within 128 cycles.
 Requested convergence on MAX density matrix=1.00D-06.
 Requested convergence on             energy=1.00D-06.
 No special actions if energy rises.
 Fock matrices will be formed incrementally for  20 cycles.

 Cycle   1  Pass 1  IDiag  1:
 FoFCou: FMM=F IPFlag=           0 FMFlag=      100000 FMFlg1=           0
         NFxFlg=           0 DoJE=T BraDBF=T KetDBF=F FulRan=T
         wScrn=  0.000000 ICntrl=       500 IOpCl=  0 I1Cent=           5 NGrid=           0
         NMat0=    1 NMatS0=      1 NMatT0=    0 NMatD0=    1 NMtDS0=    0 NMtDT0=    0
 Symmetry not used in FoFCou.
 FoFJK:  IHMeth= 1 ICntrl=     500 DoSepK=F KAlg= 0 I1Cent=           4 FoldK=F
 IRaf= 960000000 NMat=       1 IRICut=       1 DoRegI=T DoRafI=F ISym2E= 0 IDoP0=0 IntGTp=1.
 Inv3:  Mode=1 IEnd=     1877043.
 Iteration    1 A*A^-1 deviation from unit magnitude is 2.66D-15 for    206.
 Iteration    1 A*A^-1 deviation from orthogonality  is 2.00D-15 for    758    627.
 Iteration    1 A^-1*A deviation from unit magnitude is 3.00D-15 for    628.
 Iteration    1 A^-1*A deviation from orthogonality  is 1.78D-15 for    758    627.
 E= -240.249909583363    
 DIIS: error= 4.65D-02 at cycle   1 NSaved=   1.
 NSaved= 1 IEnMin= 1 EnMin= -240.249909583363     IErMin= 1 ErrMin= 4.65D-02
 ErrMax= 4.65D-02  0.00D+00 EMaxC= 1.00D-01 BMatC= 1.66D-01 BMatP= 1.66D-01
 IDIUse=3 WtCom= 5.35D-01 WtEn= 4.65D-01
 Coeff-Com:  0.100D+01
 Coeff-En:   0.100D+01
 Coeff:      0.100D+01
 Gap=     0.191 Goal=   None    Shift=    0.000
 GapD=    0.191 DampG=1.000 DampE=0.500 DampFc=0.5000 IDamp=-1.
 Damping current iteration by 5.00D-01
 RMSDP=1.08D-02 MaxDP=2.42D-01              OVMax= 2.92D-01

 Cycle   2  Pass 1  IDiag  1:
 RMSU=  5.35D-03    CP:  9.42D-01
 E= -240.190215148868     Delta-E=        0.059694434495 Rises=F Damp=T
 DIIS: error= 3.49D-02 at cycle   2 NSaved=   2.
 NSaved= 2 IEnMin= 1 EnMin= -240.249909583363     IErMin= 2 ErrMin= 3.49D-02
 ErrMax= 3.49D-02  0.00D+00 EMaxC= 1.00D-01 BMatC= 1.02D-01 BMatP= 1.66D-01
 IDIUse=3 WtCom= 6.51D-01 WtEn= 3.49D-01
 Coeff-Com:  0.426D+00 0.574D+00
 Coeff-En:   0.610D+00 0.390D+00
 Coeff:      0.490D+00 0.510D+00
 Gap=     0.175 Goal=   None    Shift=    0.000
 RMSDP=2.92D-03 MaxDP=1.01D-01 DE= 5.97D-02 OVMax= 2.37D-01

 Cycle   3  Pass 1  IDiag  1:
 RMSU=  2.42D-03    CP:  9.33D-01  6.93D-01
 E= -240.352704854044     Delta-E=       -0.162489705176 Rises=F Damp=F
 DIIS: error= 1.77D-02 at cycle   3 NSaved=   3.
 NSaved= 3 IEnMin= 3 EnMin= -240.352704854044     IErMin= 3 ErrMin= 1.77D-02
 ErrMax= 1.77D-02  0.00D+00 EMaxC= 1.00D-01 BMatC= 3.14D-02 BMatP= 1.02D-01
 IDIUse=3 WtCom= 8.23D-01 WtEn= 1.77D-01
 Coeff-Com:  0.213D+00 0.329D+00 0.458D+00
 Coeff-En:   0.000D+00 0.000D+00 0.100D+01
 Coeff:      0.175D+00 0.270D+00 0.554D+00
 Gap=     0.203 Goal=   None    Shift=    0.000
 RMSDP=1.70D-03 MaxDP=3.97D-02 DE=-1.62D-01 OVMax= 1.01D-01

 Cycle   4  Pass 1  IDiag  1:
 RMSU=  1.06D-03    CP:  9.53D-01  5.52D-01  5.62D-01
 E= -240.370778867006     Delta-E=       -0.018074012963 Rises=F Damp=F
 DIIS: error= 1.54D-02 at cycle   4 NSaved=   4.
 NSaved= 4 IEnMin= 4 EnMin= -240.370778867006     IErMin= 4 ErrMin= 1.54D-02
 ErrMax= 1.54D-02  0.00D+00 EMaxC= 1.00D-01 BMatC= 1.56D-02 BMatP= 3.14D-02
 IDIUse=3 WtCom= 8.46D-01 WtEn= 1.54D-01
 Coeff-Com:  0.104D+00 0.117D+00 0.386D+00 0.392D+00
 Coeff-En:   0.000D+00 0.000D+00 0.335D+00 0.665D+00
 Coeff:      0.883D-01 0.993D-01 0.378D+00 0.434D+00
 Gap=     0.189 Goal=   None    Shift=    0.000
 RMSDP=5.96D-04 MaxDP=2.09D-02 DE=-1.81D-02 OVMax= 5.33D-02

 Cycle   5  Pass 1  IDiag  1:
 RMSU=  2.53D-04    CP:  9.52D-01  5.40D-01  6.92D-01  5.90D-01
 E= -240.383216511554     Delta-E=       -0.012437644548 Rises=F Damp=F
 DIIS: error= 3.22D-03 at cycle   5 NSaved=   5.
 NSaved= 5 IEnMin= 5 EnMin= -240.383216511554     IErMin= 5 ErrMin= 3.22D-03
 ErrMax= 3.22D-03  0.00D+00 EMaxC= 1.00D-01 BMatC= 1.31D-03 BMatP= 1.56D-02
 IDIUse=3 WtCom= 9.68D-01 WtEn= 3.22D-02
 Coeff-Com:  0.178D-01 0.299D-02 0.154D+00 0.299D+00 0.526D+00
 Coeff-En:   0.000D+00 0.000D+00 0.000D+00 0.822D-01 0.918D+00
 Coeff:      0.172D-01 0.289D-02 0.149D+00 0.292D+00 0.538D+00
 Gap=     0.191 Goal=   None    Shift=    0.000
 RMSDP=1.91D-04 MaxDP=4.03D-03 DE=-1.24D-02 OVMax= 1.13D-02

 Cycle   6  Pass 1  IDiag  1:
 RMSU=  3.96D-05    CP:  9.50D-01  5.62D-01  6.91D-01  6.59D-01  5.32D-01
 E= -240.384354076102     Delta-E=       -0.001137564548 Rises=F Damp=F
 DIIS: error= 5.26D-04 at cycle   6 NSaved=   6.
 NSaved= 6 IEnMin= 6 EnMin= -240.384354076102     IErMin= 6 ErrMin= 5.26D-04
 ErrMax= 5.26D-04  0.00D+00 EMaxC= 1.00D-01 BMatC= 2.09D-05 BMatP= 1.31D-03
 IDIUse=3 WtCom= 9.95D-01 WtEn= 5.26D-03
 Coeff-Com:  0.337D-02-0.154D-02 0.350D-01 0.603D-01 0.179D+00 0.724D+00
 Coeff-En:   0.000D+00 0.000D+00 0.000D+00 0.000D+00 0.000D+00 0.100D+01
 Coeff:      0.335D-02-0.153D-02 0.348D-01 0.600D-01 0.178D+00 0.725D+00
 Gap=     0.191 Goal=   None    Shift=    0.000
 RMSDP=2.29D-05 MaxDP=4.56D-04 DE=-1.14D-03 OVMax= 1.57D-03

 Cycle   7  Pass 1  IDiag  1:
 RMSU=  6.40D-06    CP:  9.50D-01  5.60D-01  6.94D-01  6.47D-01  5.71D-01
                    CP:  8.02D-01
 E= -240.384374120980     Delta-E=       -0.000020044878 Rises=F Damp=F
 DIIS: error= 3.59D-05 at cycle   7 NSaved=   7.
 NSaved= 7 IEnMin= 7 EnMin= -240.384374120980     IErMin= 7 ErrMin= 3.59D-05
 ErrMax= 3.59D-05  0.00D+00 EMaxC= 1.00D-01 BMatC= 1.42D-07 BMatP= 2.09D-05
 IDIUse=1 WtCom= 1.00D+00 WtEn= 0.00D+00
 Coeff-Com:  0.412D-03-0.282D-03 0.398D-02 0.400D-02 0.288D-01 0.212D+00
 Coeff-Com:  0.751D+00
 Coeff:      0.412D-03-0.282D-03 0.398D-02 0.400D-02 0.288D-01 0.212D+00
 Coeff:      0.751D+00
 Gap=     0.191 Goal=   None    Shift=    0.000
 RMSDP=2.48D-06 MaxDP=7.45D-05 DE=-2.00D-05 OVMax= 1.02D-04

 Cycle   8  Pass 1  IDiag  1:
 RMSU=  1.15D-06    CP:  9.50D-01  5.60D-01  6.94D-01  6.47D-01  5.72D-01
                    CP:  8.26D-01  7.82D-01
 E= -240.384374247319     Delta-E=       -0.000000126339 Rises=F Damp=F
 DIIS: error= 9.41D-06 at cycle   8 NSaved=   8.
 NSaved= 8 IEnMin= 8 EnMin= -240.384374247319     IErMin= 8 ErrMin= 9.41D-06
 ErrMax= 9.41D-06  0.00D+00 EMaxC= 1.00D-01 BMatC= 8.20D-09 BMatP= 1.42D-07
 IDIUse=1 WtCom= 1.00D+00 WtEn= 0.00D+00
 Coeff-Com:  0.482D-04-0.171D-04 0.579D-03 0.321D-03 0.568D-02 0.547D-01
 Coeff-Com:  0.243D+00 0.696D+00
 Coeff:      0.482D-04-0.171D-04 0.579D-03 0.321D-03 0.568D-02 0.547D-01
 Coeff:      0.243D+00 0.696D+00
 Gap=     0.191 Goal=   None    Shift=    0.000
 RMSDP=6.40D-07 MaxDP=1.19D-05 DE=-1.26D-07 OVMax= 3.76D-05

 Cycle   9  Pass 1  IDiag  1:
 RMSU=  5.26D-07    CP:  9.50D-01  5.60D-01  6.94D-01  6.47D-01  5.71D-01
                    CP:  8.26D-01  7.95D-01  7.75D-01
 E= -240.384374251178     Delta-E=       -0.000000003860 Rises=F Damp=F
 DIIS: error= 7.25D-06 at cycle   9 NSaved=   9.
 NSaved= 9 IEnMin= 9 EnMin= -240.384374251178     IErMin= 9 ErrMin= 7.25D-06
 ErrMax= 7.25D-06  0.00D+00 EMaxC= 1.00D-01 BMatC= 4.84D-09 BMatP= 8.20D-09
 IDIUse=1 WtCom= 1.00D+00 WtEn= 0.00D+00
 Coeff-Com:  0.611D-05 0.884D-05 0.162D-03-0.132D-04 0.233D-02 0.273D-01
 Coeff-Com:  0.133D+00 0.523D+00 0.314D+00
 Coeff:      0.611D-05 0.884D-05 0.162D-03-0.132D-04 0.233D-02 0.273D-01
 Coeff:      0.133D+00 0.523D+00 0.314D+00
 Gap=     0.191 Goal=   None    Shift=    0.000
 RMSDP=3.68D-07 MaxDP=6.80D-06 DE=-3.86D-09 OVMax= 2.03D-05

 Cycle  10  Pass 1  IDiag  1:
 RMSU=  1.33D-07    CP:  9.50D-01  5.60D-01  6.94D-01  6.47D-01  5.71D-01
                    CP:  8.26D-01  7.94D-01  8.46D-01  3.74D-01
 E= -240.384374255227     Delta-E=       -0.000000004048 Rises=F Damp=F
 DIIS: error= 1.13D-06 at cycle  10 NSaved=  10.
 NSaved=10 IEnMin=10 EnMin= -240.384374255227     IErMin=10 ErrMin= 1.13D-06
 ErrMax= 1.13D-06  0.00D+00 EMaxC= 1.00D-01 BMatC= 1.76D-10 BMatP= 4.84D-09
 IDIUse=1 WtCom= 1.00D+00 WtEn= 0.00D+00
 Coeff-Com: -0.716D-05 0.951D-05-0.166D-04-0.599D-04 0.320D-03 0.632D-02
 Coeff-Com:  0.345D-01 0.175D+00 0.177D+00 0.607D+00
 Coeff:     -0.716D-05 0.951D-05-0.166D-04-0.599D-04 0.320D-03 0.632D-02
 Coeff:      0.345D-01 0.175D+00 0.177D+00 0.607D+00
 Gap=     0.191 Goal=   None    Shift=    0.000
 RMSDP=5.80D-08 MaxDP=1.13D-06 DE=-4.05D-09 OVMax= 3.02D-06

 Cycle  11  Pass 1  IDiag  1:
 RMSU=  2.95D-08    CP:  9.50D-01  5.60D-01  6.94D-01  6.47D-01  5.71D-01
                    CP:  8.26D-01  7.95D-01  8.42D-01  3.97D-01  7.44D-01
 E= -240.384374255383     Delta-E=       -0.000000000156 Rises=F Damp=F
 DIIS: error= 2.25D-07 at cycle  11 NSaved=  11.
 NSaved=11 IEnMin=11 EnMin= -240.384374255383     IErMin=11 ErrMin= 2.25D-07
 ErrMax= 2.25D-07  0.00D+00 EMaxC= 1.00D-01 BMatC= 5.02D-12 BMatP= 1.76D-10
 IDIUse=1 WtCom= 1.00D+00 WtEn= 0.00D+00
 Coeff-Com: -0.353D-05 0.416D-05-0.130D-04-0.301D-04 0.857D-04 0.230D-02
 Coeff-Com:  0.129D-01 0.676D-01 0.745D-01 0.287D+00 0.555D+00
 Coeff:     -0.353D-05 0.416D-05-0.130D-04-0.301D-04 0.857D-04 0.230D-02
 Coeff:      0.129D-01 0.676D-01 0.745D-01 0.287D+00 0.555D+00
 Gap=     0.191 Goal=   None    Shift=    0.000
 RMSDP=2.02D-08 MaxDP=2.93D-07 DE=-1.56D-10 OVMax= 1.13D-06

 Cycle  12  Pass 1  IDiag  1:
 RMSU=  1.20D-08    CP:  9.50D-01  5.60D-01  6.94D-01  6.47D-01  5.71D-01
                    CP:  8.26D-01  7.95D-01  8.39D-01  4.20D-01  7.27D-01
                    CP:  6.78D-01
 E= -240.384374255389     Delta-E=       -0.000000000006 Rises=F Damp=F
 DIIS: error= 1.03D-07 at cycle  12 NSaved=  12.
 NSaved=12 IEnMin=12 EnMin= -240.384374255389     IErMin=12 ErrMin= 1.03D-07
 ErrMax= 1.03D-07  0.00D+00 EMaxC= 1.00D-01 BMatC= 9.90D-13 BMatP= 5.02D-12
 IDIUse=1 WtCom= 1.00D+00 WtEn= 0.00D+00
 Coeff-Com: -0.473D-06 0.409D-06-0.346D-05-0.640D-05-0.464D-05 0.186D-03
 Coeff-Com:  0.117D-02 0.545D-02 0.787D-02 0.429D-01 0.321D+00 0.622D+00
 Coeff:     -0.473D-06 0.409D-06-0.346D-05-0.640D-05-0.464D-05 0.186D-03
 Coeff:      0.117D-02 0.545D-02 0.787D-02 0.429D-01 0.321D+00 0.622D+00
 Gap=     0.191 Goal=   None    Shift=    0.000
 RMSDP=6.73D-09 MaxDP=1.03D-07 DE=-5.68D-12 OVMax= 3.68D-07

 Error on total polarization charges =  0.01435
 SCF Done:  E(RPBE-PBE) =  -240.384374255     A.U. after   12 cycles
            NFock= 12  Conv=0.67D-08     -V/T= 2.0054
 KE= 2.390979130594D+02 PE=-8.004641755755D+02 EE= 2.052745871565D+02
 Leave Link  502 at Tue Mar 10 14:50:16 2020, MaxMem=  7516192768 cpu:             140.9 elap:              11.8
 (Enter /opt/g16/l601.exe)
 Copying SCF densities to generalized density rwf, IOpCl= 0 IROHF=0.

 **********************************************************************

            Population analysis using the SCF Density.

 **********************************************************************

 Orbital symmetries:
       Occupied  (A) (A) (A) (A) (A) (A) (A) (A) (A) (A) (A) (A)
                 (A) (A) (A) (A) (A)
       Virtual   (A) (A) (A) (A) (A) (A) (A) (A) (A) (A) (A) (A)
                 (A) (A) (A) (A) (A) (A) (A) (A) (A) (A) (A) (A)
                 (A) (A) (A) (A) (A) (A) (A) (A) (A) (A) (A) (A)
                 (A) (A) (A) (A) (A) (A) (A) (A) (A) (A) (A) (A)
                 (A) (A) (A) (A) (A) (A) (A) (A) (A) (A) (A) (A)
                 (A) (A) (A) (A) (A) (A) (A) (A) (A) (A) (A) (A)
                 (A) (A) (A) (A) (A) (A) (A) (A) (A) (A) (A) (A)
                 (A) (A) (A) (A) (A) (A) (A) (A) (A) (A) (A) (A)
                 (A) (A) (A) (A) (A) (A) (A) (A) (A) (A) (A) (A)
                 (A) (A) (A) (A) (A) (A) (A) (A) (A) (A) (A) (A)
                 (A) (A) (A) (A) (A) (A) (A) (A) (A) (A) (A) (A)
                 (A) (A) (A) (A) (A) (A)
 The electronic state is 1-A.
 Alpha  occ. eigenvalues --  -14.00518 -13.95405 -13.95401  -9.93151  -9.93148
 Alpha  occ. eigenvalues --   -0.82991  -0.80712  -0.75878  -0.49919  -0.35441
 Alpha  occ. eigenvalues --   -0.33811  -0.31574  -0.30953  -0.29354  -0.28337
 Alpha  occ. eigenvalues --   -0.24386  -0.19280
 Alpha virt. eigenvalues --   -0.00228   0.02018   0.02236   0.03321   0.07576
 Alpha virt. eigenvalues --    0.09209   0.14830   0.18719   0.20087   0.20819
 Alpha virt. eigenvalues --    0.22407   0.24382   0.24775   0.30857   0.32050
 Alpha virt. eigenvalues --    0.34577   0.36387   0.36984   0.43982   0.45089
 Alpha virt. eigenvalues --    0.45658   0.47381   0.54531   0.54656   0.60507
 Alpha virt. eigenvalues --    0.63989   0.67305   0.68933   0.69820   0.76838
 Alpha virt. eigenvalues --    0.78891   0.80948   0.83716   0.86332   0.88048
 Alpha virt. eigenvalues --    1.10442   1.11670   1.14563   1.18436   1.19028
 Alpha virt. eigenvalues --    1.20545   1.22749   1.31829   1.34084   1.35731
 Alpha virt. eigenvalues --    1.35820   1.36362   1.41382   1.41941   1.44893
 Alpha virt. eigenvalues --    1.45555   1.49423   1.57893   1.60345   1.75569
 Alpha virt. eigenvalues --    1.78777   1.81875   1.84347   1.84901   2.01558
 Alpha virt. eigenvalues --    2.12804   2.15812   2.17276   2.27337   2.27704
 Alpha virt. eigenvalues --    2.38629   2.40764   2.48243   2.49981   2.57044
 Alpha virt. eigenvalues --    2.57350   2.60015   2.62307   2.63606   2.68415
 Alpha virt. eigenvalues --    2.69987   2.75376   2.80674   2.87994   2.88261
 Alpha virt. eigenvalues --    2.89324   2.90140   2.94196   2.95510   3.02647
 Alpha virt. eigenvalues --    3.09408   3.14377   3.18874   3.22713   3.27221
 Alpha virt. eigenvalues --    3.28537   3.33645   3.42854   3.71822   3.74819
 Alpha virt. eigenvalues --    3.88943   3.89254   3.89270   3.89630   3.95139
 Alpha virt. eigenvalues --    4.13719   4.16845   4.30720   4.39632   4.40349
 Alpha virt. eigenvalues --    4.41914   4.46098   4.47681   4.51510   4.52175
 Alpha virt. eigenvalues --    4.56039   4.59884   4.62842   4.71130   4.73299
 Alpha virt. eigenvalues --    4.77470   4.78715   4.88391   4.88636   5.08242
 Alpha virt. eigenvalues --    5.11138   5.13923   5.23172   5.26318   5.27404
 Alpha virt. eigenvalues --    5.57474   5.63303   5.65567   5.70260   5.74931
 Alpha virt. eigenvalues --    5.88604   6.32237   6.49324  22.24709  22.53289
 Alpha virt. eigenvalues --   31.80612  31.88895  32.17314
          Condensed to atoms (all electrons):
               1          2          3          4          5
     1  C    4.779920   1.065202   0.388313  -0.068725  -0.009242
     2  N    1.065202   6.186466  -0.092722  -0.009368   0.000859
     3  N    0.388313  -0.092722   6.797587   0.387691  -0.092684
     4  C   -0.068725  -0.009368   0.387691   4.779448   1.066199
     5  N   -0.009242   0.000859  -0.092684   1.066199   6.185532
 Mulliken charges:
               1
     1  C   -0.155469
     2  N   -0.150437
     3  N   -0.388185
     4  C   -0.155245
     5  N   -0.150664
 Sum of Mulliken charges =  -1.00000
 Mulliken charges with hydrogens summed into heavy atoms:
               1
     1  C   -0.155469
     2  N   -0.150437
     3  N   -0.388185
     4  C   -0.155245
     5  N   -0.150664
 Electronic spatial extent (au):  <R**2>=            419.1235
 Charge=             -1.0000 electrons
 Dipole moment (field-independent basis, Debye):
    X=             -0.0062    Y=              1.0966    Z=             -0.0000  Tot=              1.0966
 Quadrupole moment (field-independent basis, Debye-Ang):
   XX=            -53.5324   YY=            -34.5299   ZZ=            -30.3289
   XY=             -0.0099   XZ=             -0.0000   YZ=              0.0000
 Traceless Quadrupole moment (field-independent basis, Debye-Ang):
   XX=            -14.0687   YY=              4.9338   ZZ=              9.1348
   XY=             -0.0099   XZ=             -0.0000   YZ=              0.0000
 Octapole moment (field-independent basis, Debye-Ang**2):
  XXX=             -0.0470  YYY=             -1.4783  ZZZ=              0.0000  XYY=              0.0014
  XXY=             19.0293  XXZ=             -0.0000  XZZ=             -0.0003  YZZ=             -0.1023
  YYZ=              0.0000  XYZ=             -0.0000
 Hexadecapole moment (field-independent basis, Debye-Ang**3):
 XXXX=           -637.9824 YYYY=            -96.3133 ZZZZ=            -32.7619 XXXY=             -0.0126
 XXXZ=             -0.0001 YYYX=             -0.0149 YYYZ=              0.0000 ZZZX=              0.0000
 ZZZY=             -0.0000 XXYY=           -107.5635 XXZZ=            -88.8471 YYZZ=            -21.2501
 XXYZ=              0.0000 YYXZ=             -0.0000 ZZXY=              0.0003
 N-N= 1.157073011042D+02 E-N=-8.004641752606D+02  KE= 2.390979130594D+02
 No NMR shielding tensors so no spin-rotation constants.
 Leave Link  601 at Tue Mar 10 14:50:17 2020, MaxMem=  7516192768 cpu:               1.8 elap:               0.2
 (Enter /opt/g16/l701.exe)
 ... and contract with generalized density number  0.
 Compute integral first derivatives.
   1 Symmetry operations used in ECPInt.
 ECPInt:  NShTT=    1540 NPrTT=    5160 LenC2=    1508 LenP2D=    4174.
 LDataN:  DoStor=T MaxTD1= 7 Len=  274
 D1PCM: C-PCM CHGder 1st derivatives, ID1Alg=3 FixD1E=F DoIter=F DoCFld=F I1PDM=0.
 GePol: Maximum number of non-zero 1st derivatives   =     230
 Leave Link  701 at Tue Mar 10 14:50:17 2020, MaxMem=  7516192768 cpu:               5.8 elap:               0.5
 (Enter /opt/g16/l702.exe)
 L702 exits ... SP integral derivatives will be done elsewhere.
 Leave Link  702 at Tue Mar 10 14:50:17 2020, MaxMem=  7516192768 cpu:               0.2 elap:               0.0
 (Enter /opt/g16/l703.exe)
 Integral derivatives from FoFJK, PRISM(SPDF).
 Compute integral first derivatives, UseDBF=T ICtDFT=           0.
 Calling FoFJK, ICntrl=      2527 FMM=F ISym2X=0 I1Cent= 4 IOpClX= 0 NMat=1 NMatS=1 NMatT=0.
 FoFJK:  IHMeth= 1 ICntrl=    2527 DoSepK=F KAlg= 0 I1Cent=           4 FoldK=F
 IRaf=         0 NMat=       1 IRICut=       1 DoRegI=T DoRafI=F ISym2E= 0 IDoP0=0 IntGTp=1.
 FoFCou: FMM=F IPFlag=           0 FMFlag=      100000 FMFlg1=         800
         NFxFlg=           0 DoJE=F BraDBF=F KetDBF=T FulRan=T
         wScrn=  0.000000 ICntrl=      2527 IOpCl=  0 I1Cent=           4 NGrid=           0
         NMat0=    1 NMatS0=      1 NMatT0=    0 NMatD0=    1 NMtDS0=    0 NMtDT0=    0
 Symmetry not used in FoFCou.
 Leave Link  703 at Tue Mar 10 14:50:18 2020, MaxMem=  7516192768 cpu:               7.3 elap:               0.6
 (Enter /opt/g16/l716.exe)
 Dipole        =-2.43813757D-03 4.31431364D-01-2.36278354D-06
 ***** Axes restored to original set *****
 -------------------------------------------------------------------
 Center     Atomic                   Forces (Hartrees/Bohr)
 Number     Number              X              Y              Z
 -------------------------------------------------------------------
      1        6           0.114863598   -0.003452393    0.000355430
      2        7          -0.033896929    0.003072913   -0.000316412
      3        7          -0.040313128   -0.069314480    0.007137540
      4        6          -0.060211816    0.097373193   -0.010026736
      5        7           0.019558275   -0.027679233    0.002850179
 -------------------------------------------------------------------
 Cartesian Forces:  Max     0.114863598 RMS     0.048448703
 Leave Link  716 at Tue Mar 10 14:50:18 2020, MaxMem=  7516192768 cpu:               0.2 elap:               0.0
 (Enter /opt/g16/l103.exe)

 GradGradGradGradGradGradGradGradGradGradGradGradGradGradGradGradGradGrad
 Berny optimization.
 FormGI is forming the generalized inverse of G from B-inverse, IUseBI=4.
 Internal  Forces:  Max     0.080665532 RMS     0.041631716
 Search for a local minimum.
 Step number   1 out of a maximum of   20
 All quantities printed in internal units (Hartrees-Bohrs-Radians)
 RMS Force = .41632D-01 SwitMx=.10000D-02 MixMth= 1
 Mixed Optimization -- RFO/linear search
 Second derivative matrix not updated -- first step.
 The second derivative matrix:
                          R1        R2        R3        R4        A1
           R1           1.26993
           R2           0.00000   0.37700
           R3           0.00000   0.00000   0.37701
           R4           0.00000   0.00000   0.00000   1.26993
           A1           0.00000   0.00000   0.00000   0.00000   0.25000
           A2           0.00000   0.00000   0.00000   0.00000   0.00000
           A3           0.00000   0.00000   0.00000   0.00000   0.00000
           A4           0.00000   0.00000   0.00000   0.00000   0.00000
           A5           0.00000   0.00000   0.00000   0.00000   0.00000
                          A2        A3        A4        A5
           A2           0.00975
           A3           0.00000   0.04850
           A4           0.00000   0.00000   0.00975
           A5           0.00000   0.00000   0.00000   0.04850
 ITU=  0
     Eigenvalues ---    0.00975   0.00975   0.04850   0.04850   0.25000
     Eigenvalues ---    0.37700   0.37701   1.26993   1.26993
 RFO step:  Lambda=-3.72645777D-02 EMin= 9.74815526D-03
 Linear search not attempted -- first point.
 Maximum step size (   0.300) exceeded in Quadratic search.
    -- Step size scaled by   0.782
 Iteration  1 RMS(Cart)=  0.11292195 RMS(Int)=  0.00893268
 Iteration  2 RMS(Cart)=  0.00876203 RMS(Int)=  0.00001327
 Iteration  3 RMS(Cart)=  0.00002324 RMS(Int)=  0.00000000
 Iteration  4 RMS(Cart)=  0.00000000 RMS(Int)=  0.00000000
 ITry= 1 IFail=0 DXMaxC= 1.80D-01 DCOld= 1.00D+10 DXMaxT= 3.00D-01 DXLimC= 3.00D+00 Rises=F
 Variable       Old X    -DE/DX   Delta X   Delta X   Delta X     New X
                                 (Linear)    (Quad)   (Total)
    R1        2.19440   0.03367   0.00000   0.02015   0.02015   2.21456
    R2        2.74804  -0.08061   0.00000  -0.15226  -0.15226   2.59578
    R3        2.74803  -0.08067   0.00000  -0.15236  -0.15236   2.59567
    R4        2.19440   0.03368   0.00000   0.02016   0.02016   2.21457
    A1        1.91594  -0.00996   0.00000  -0.02712  -0.02712   1.88882
    A2        3.17481   0.01094   0.00000   0.18211   0.18211   3.35692
    A3        3.18083   0.01034   0.00000   0.09430   0.09430   3.27513
    A4        3.14159   0.00000   0.00000   0.00000   0.00000   3.14159
    A5        3.14160  -0.00000   0.00000  -0.00001  -0.00001   3.14160
         Item               Value     Threshold  Converged?
 Maximum Force            0.080666     0.000450     NO 
 RMS     Force            0.041632     0.000300     NO 
 Maximum Displacement     0.179606     0.001800     NO 
 RMS     Displacement     0.116987     0.001200     NO 
 Predicted change in Energy=-1.942762D-02
 Lowest energy point so far.  Saving SCF results.
 GradGradGradGradGradGradGradGradGradGradGradGradGradGradGradGradGradGrad

 Leave Link  103 at Tue Mar 10 14:50:18 2020, MaxMem=  7516192768 cpu:               0.4 elap:               0.1
 (Enter /opt/g16/l202.exe)
                          Input orientation:                          
 ---------------------------------------------------------------------
 Center     Atomic      Atomic             Coordinates (Angstroms)
 Number     Number       Type             X           Y           Z
 ---------------------------------------------------------------------
      1          6           0        1.099689   -0.268674    0.002236
      2          7           0       -0.066859   -0.157448   -0.009219
      3          7           0        2.463477   -0.105416   -0.014573
      4          6           0        3.045790   -1.342898    0.112861
      5          7           0        3.679494   -2.323494    0.213845
 ---------------------------------------------------------------------
                    Distance matrix (angstroms):
                    1          2          3          4          5
     1  C    0.000000
     2  N    1.171894   0.000000
     3  N    1.373628   2.530876   0.000000
     4  C    2.225648   3.332984   1.373569   0.000000
     5  N    3.304914   4.333206   2.539831   1.171898   0.000000
 Stoichiometry    C2N3(1-)
 Framework group  C1[X(C2N3)]
 Deg. of freedom     9
 Full point group                 C1      NOp   1
 RotChk:  IX=2 Diff= 4.53D-04
 Largest Abelian subgroup         C1      NOp   1
 Largest concise Abelian subgroup C1      NOp   1
                         Standard orientation:                         
 ---------------------------------------------------------------------
 Center     Atomic      Atomic             Coordinates (Angstroms)
 Number     Number       Type             X           Y           Z
 ---------------------------------------------------------------------
      1          6           0       -1.104554    0.028283   -0.000000
      2          7           0       -2.171123   -0.457276    0.000000
      3          7           0       -0.004858    0.851400    0.000001
      4          6           0        1.120803    0.064268   -0.000002
      5          7           0        2.162053   -0.473453    0.000001
 ---------------------------------------------------------------------
 Rotational constants (GHZ):          31.0492214           3.1355041           2.8479083
 Leave Link  202 at Tue Mar 10 14:50:18 2020, MaxMem=  7516192768 cpu:               0.1 elap:               0.0
 (Enter /opt/g16/l301.exe)
 Standard basis: def2TZVP (5D, 7F)
 Ernie: Thresh=  0.10000D-02 Tol=  0.10000D-05 Strict=F.
 There are   180 symmetry adapted cartesian basis functions of A   symmetry.
 There are   155 symmetry adapted basis functions of A   symmetry.
   155 basis functions,   255 primitive gaussians,   180 cartesian basis functions
    17 alpha electrons       17 beta electrons
       nuclear repulsion energy       118.6829276647 Hartrees.
 IExCor= 1009 DFT=T Ex=PBE Corr=PBE ExCW=0 ScaHFX=  0.000000
 ScaDFX=  1.000000  1.000000  1.000000  1.000000 ScalE2=  1.000000  1.000000
 IRadAn=      5 IRanWt=     -1 IRanGd=            0 ICorTp=0 IEmpDi=  4
 NAtoms=    5 NActive=    5 NUniq=    5 SFac= 1.00D+00 NAtFMM=   60 NAOKFM=F Big=F
 Integral buffers will be    131072 words long.
 Raffenetti 2 integral format.
 Two-electron integral symmetry is turned on.
 Standard density basis: W06 (5D, 7F)
   245 Density fitting functions
 There are   245 symmetry adapted density basis functions of A   symmetry.
 ------------------------------------------------------------------------------
 Polarizable Continuum Model (PCM)
 =================================
 Model                : C-PCM.
 Atomic radii         : UFF (Universal Force Field).
 Polarization charges : Total charges.
 Charge compensation  : None.
 Solution method      : On-the-fly selection.
 Cavity type          : Scaled VdW (van der Waals Surface) (Alpha=1.100).
 Cavity algorithm     : GePol (No added spheres)
                        Default sphere list used, NSphG=    5.
                        Lebedev-Laikov grids with approx.  5.0 points / Ang**2.
                        Smoothing algorithm: York/Karplus (Gamma=1.0000).
                        Polarization charges: spherical gaussians, with
                                              point-specific exponents (IZeta= 3).
                        Self-potential: point-specific (ISelfS= 7).
                        Self-field    : sphere-specific E.n sum rule (ISelfD= 2).
 1st derivatives      : Analytical E(r).r(x)/FMM algorithm (CHGder, D1EAlg=3).
                        Cavity 1st derivative terms included.
 Solvent              : Generic,
                        Eps                           = 999.000000
                        Eps(infinity)                 =   0.000000
                        RSolv                         =   0.000000 Ang.
                        Molar volume                  =   0.000000 cm**3/mol
                        Thermal expansion coefficient =   0.000000 K**-1
                        Absolute temperature          = 298.150000 K
                        Numeral density               =   0.000000 Ang**-3
                        Hydrogen bond acidity         =   0.000000
                        Hydrogen bond basicity        =   0.000000
                        Surface tension at interface  =   0.000000 (cal/mol)*Ang**-2
                        Carbon aromaticity            =   0.000000
                        Electronegative halogenicity  =   0.000000
 ------------------------------------------------------------------------------
 Spheres list:
 ISph  on   Nord     Re0    Alpha      Xe            Ye            Ze
    1   C      1    1.9255  1.100     -1.104554      0.028283     -0.000000
    2   N      2    1.8300  1.100     -2.171123     -0.457276      0.000000
    3   N      3    1.8300  1.100     -0.004858      0.851400      0.000001
    4   C      4    1.9255  1.100      1.120803      0.064268     -0.000002
    5   N      5    1.8300  1.100      2.162053     -0.473453      0.000001
 ------------------------------------------------------------------------------
 GePol: Number of generator spheres                  =       5
 GePol: Total number of spheres                      =       5
 GePol: Number of exposed spheres                    =       5 (100.00%)
 GePol: Number of points                             =     810
 GePol: Average weight of points                     =       0.14
 GePol: Minimum weight of points                     =   0.14D-05
 GePol: Maximum weight of points                     =    0.20577
 GePol: Number of points with low weight             =      37
 GePol: Fraction of low-weight points (<1% of avg)   =       4.57%
 GePol: Cavity surface area                          =    114.731 Ang**2
 GePol: Cavity volume                                =     99.279 Ang**3
 Leave Link  301 at Tue Mar 10 14:50:18 2020, MaxMem=  7516192768 cpu:               0.8 elap:               0.1
 (Enter /opt/g16/l302.exe)
 NPDir=0 NMtPBC=     1 NCelOv=     1 NCel=       1 NClECP=     1 NCelD=      1
         NCelK=      1 NCelE2=     1 NClLst=     1 CellRange=     0.0.
 One-electron integrals computed using PRISM.
 One-electron integral symmetry used in STVInt
   1 Symmetry operations used in ECPInt.
 ECPInt:  NShTT=    1540 NPrTT=    5160 LenC2=    1509 LenP2D=    4185.
 LDataN:  DoStor=T MaxTD1= 6 Len=  172
 NBasis=   155 RedAO= T EigKep=  2.11D-04  NBF=   155
 NBsUse=   155 1.00D-06 EigRej= -1.00D+00 NBFU=   155
 NBasis=      155 NBas6D=      180 NTT=       12090   NTT6D=    16290
 NDBShl=       75 NDBF=        245 NDBF6D=      305  NNucDB=        0
 IDenFi=        2 ISolve=        0 FullAP=F BlkAPC=T NucTyp=        0
 TolInv= 1.00D-06 TolIt=  1.00D-10 IR12=0.
 FoFCou: FMM=F IPFlag=           0 FMFlag=           0 FMFlg1=           0
         NFxFlg=           0 DoJE=F BraDBF=T KetDBF=T FulRan=T
         wScrn=  0.000000 ICntrl=       600 IOpCl=  3 I1Cent=           6 NGrid=           0
         NMat0=    1 NMatS0=    305 NMatT0=    0 NMatD0=    1 NMtDS0=    0 NMtDT0=    0
 Petite list used in FoFCou.
 DBF EigKep=  8.98D-06 EigRej= -1.00D+00
 NDBF=    245  NBFD=   245
 NRank=   245 NBFDU=   245
 S*AI*S=  5.93854869967    
 Precomputing XC quadrature grid using
 IXCGrd= 4 IRadAn=           5 IRanWt=          -1 IRanGd=           0 AccXCQ= 0.00D+00.
 Generated NRdTot=       0 NPtTot=           0 NUsed=           0 NTot=          32
 NSgBfM=   178   178   178   178   178 MxSgAt=     5 MxSgA2=     5.
 Leave Link  302 at Tue Mar 10 14:50:18 2020, MaxMem=  7516192768 cpu:               3.3 elap:               0.3
 (Enter /opt/g16/l303.exe)
 DipDrv:  MaxL=1.
 Leave Link  303 at Tue Mar 10 14:50:18 2020, MaxMem=  7516192768 cpu:               0.3 elap:               0.0
 (Enter /opt/g16/l401.exe)
 Initial guess from the checkpoint file:  "ncn2.chk"
 B after Tr=    -0.000000   -0.000000   -0.000000
         Rot=    1.000000    0.000000   -0.000000    0.000044 Ang=   0.01 deg.
 Guess basis will be translated and rotated to current coordinates.
 Recovered     1 saved fitting vectors from chk file.
 JPrj=2 DoOrth=T DoCkMO=T.
 Generating alternative initial guess.
 ExpMin= 9.52D-02 ExpMax= 1.97D+04 ExpMxC= 6.73D+02 IAcc=3 IRadAn=         5 AccDes= 0.00D+00
 Harris functional with IExCor= 1009 and IRadAn=       5 diagonalized for initial guess.
 HarFok:  IExCor= 1009 AccDes= 0.00D+00 IRadAn=         5 IDoV= 1 UseB2=F ITyADJ=14
 ICtDFT=  3500011 ScaDFX=  1.000000  1.000000  1.000000  1.000000
 FoFCou: FMM=F IPFlag=           0 FMFlag=      100000 FMFlg1=           0
         NFxFlg=           0 DoJE=T BraDBF=F KetDBF=T FulRan=T
         wScrn=  0.000000 ICntrl=       500 IOpCl=  0 I1Cent=   200000004 NGrid=           0
         NMat0=    1 NMatS0=      1 NMatT0=    0 NMatD0=    1 NMtDS0=    0 NMtDT0=    0
 Petite list used in FoFCou.
 Harris En= -240.483543449115    
 Leave Link  401 at Tue Mar 10 14:50:19 2020, MaxMem=  7516192768 cpu:               4.7 elap:               0.4
 (Enter /opt/g16/l502.exe)
 Density fitting will be used, IDenFit= 2 NucTyp=  0.
 Integral symmetry usage will be decided dynamically.
 Closed shell SCF:
 Using DIIS extrapolation, IDIIS=  1040.
 NGot=  7516192768 LenX=  7516124027 LenY=  7516091186
 Requested convergence on RMS density matrix=1.00D-08 within 128 cycles.
 Requested convergence on MAX density matrix=1.00D-06.
 Requested convergence on             energy=1.00D-06.
 No special actions if energy rises.
 Fock matrices will be formed incrementally for  20 cycles.

 Cycle   1  Pass 1  IDiag  1:
 FoFCou: FMM=F IPFlag=           0 FMFlag=      100000 FMFlg1=           0
         NFxFlg=           0 DoJE=T BraDBF=T KetDBF=F FulRan=T
         wScrn=  0.000000 ICntrl=       500 IOpCl=  0 I1Cent=           5 NGrid=           0
         NMat0=    1 NMatS0=      1 NMatT0=    0 NMatD0=    1 NMtDS0=    0 NMtDT0=    0
 Symmetry not used in FoFCou.
 FoFJK:  IHMeth= 1 ICntrl=     500 DoSepK=F KAlg= 0 I1Cent=           4 FoldK=F
 IRaf= 970000000 NMat=       1 IRICut=       1 DoRegI=T DoRafI=F ISym2E= 0 IDoP0=0 IntGTp=1.
 Inv3:  Mode=1 IEnd=     1968300.
 Iteration    1 A*A^-1 deviation from unit magnitude is 2.78D-15 for     84.
 Iteration    1 A*A^-1 deviation from orthogonality  is 9.99D-16 for    641     18.
 Iteration    1 A^-1*A deviation from unit magnitude is 2.89D-15 for    242.
 Iteration    1 A^-1*A deviation from orthogonality  is 1.44D-15 for    567    187.
 E= -240.377448092222    
 DIIS: error= 1.17D-02 at cycle   1 NSaved=   1.
 NSaved= 1 IEnMin= 1 EnMin= -240.377448092222     IErMin= 1 ErrMin= 1.17D-02
 ErrMax= 1.17D-02  0.00D+00 EMaxC= 1.00D-01 BMatC= 2.58D-02 BMatP= 2.58D-02
 IDIUse=3 WtCom= 8.83D-01 WtEn= 1.17D-01
 Coeff-Com:  0.100D+01
 Coeff-En:   0.100D+01
 Coeff:      0.100D+01
 Recover alternate guess density for next cycle.
 RMSDP=3.81D-03 MaxDP=8.25D-02              OVMax= 0.00D+00

 Cycle   2  Pass 1  IDiag  1:
 RMSU=  3.80D-03    CP:  9.84D-01
 E= -240.267907655434     Delta-E=        0.109540436787 Rises=F Damp=F
 Switch densities from cycles 1 and 2 for lowest energy.
 DIIS: error= 4.64D-02 at cycle   2 NSaved=   2.
 NSaved= 2 IEnMin= 1 EnMin= -240.377448092222     IErMin= 1 ErrMin= 1.17D-02
 ErrMax= 4.64D-02  0.00D+00 EMaxC= 1.00D+00 BMatC= 1.65D-01 BMatP= 2.58D-02
 IDIUse=1 WtCom= 1.00D+00 WtEn= 0.00D+00
 Coeff-Com:  0.884D+00 0.116D+00
 Coeff:      0.884D+00 0.116D+00
 Gap=     0.201 Goal=   None    Shift=    0.000
 RMSDP=1.81D-03 MaxDP=2.59D-02 DE= 1.10D-01 OVMax= 1.19D-01

 Cycle   3  Pass 1  IDiag  1:
 RMSU=  1.79D-03    CP:  9.99D-01 -7.31D-02
 E= -240.376584907305     Delta-E=       -0.108677251870 Rises=F Damp=F
 DIIS: error= 2.17D-02 at cycle   3 NSaved=   3.
 NSaved= 3 IEnMin= 1 EnMin= -240.377448092222     IErMin= 1 ErrMin= 1.17D-02
 ErrMax= 2.17D-02  0.00D+00 EMaxC= 1.00D+00 BMatC= 3.25D-02 BMatP= 2.58D-02
 IDIUse=1 WtCom= 1.00D+00 WtEn= 0.00D+00
 Coeff-Com:  0.269D+00 0.199D+00 0.532D+00
 Coeff:      0.269D+00 0.199D+00 0.532D+00
 Gap=     0.188 Goal=   None    Shift=    0.000
 RMSDP=1.22D-03 MaxDP=2.58D-02 DE=-1.09D-01 OVMax= 8.03D-02

 Cycle   4  Pass 1  IDiag  1:
 RMSU=  8.92D-04    CP:  9.90D-01  5.88D-02  6.31D-01
 E= -240.386399721369     Delta-E=       -0.009814814064 Rises=F Damp=F
 DIIS: error= 1.78D-02 at cycle   4 NSaved=   4.
 NSaved= 4 IEnMin= 4 EnMin= -240.386399721369     IErMin= 1 ErrMin= 1.17D-02
 ErrMax= 1.78D-02  0.00D+00 EMaxC= 1.00D+00 BMatC= 1.87D-02 BMatP= 2.58D-02
 IDIUse=1 WtCom= 1.00D+00 WtEn= 0.00D+00
 Coeff-Com:  0.134D-01 0.108D+00 0.461D+00 0.418D+00
 Coeff:      0.134D-01 0.108D+00 0.461D+00 0.418D+00
 Gap=     0.194 Goal=   None    Shift=    0.000
 RMSDP=6.05D-04 MaxDP=1.67D-02 DE=-9.81D-03 OVMax= 4.91D-02

 Cycle   5  Pass 1  IDiag  1:
 RMSU=  1.90D-04    CP:  9.94D-01  7.23D-02  7.35D-01  3.96D-01
 E= -240.403335548940     Delta-E=       -0.016935827571 Rises=F Damp=F
 DIIS: error= 1.93D-03 at cycle   5 NSaved=   5.
 NSaved= 5 IEnMin= 5 EnMin= -240.403335548940     IErMin= 5 ErrMin= 1.93D-03
 ErrMax= 1.93D-03  0.00D+00 EMaxC= 1.00D+00 BMatC= 4.39D-04 BMatP= 1.87D-02
 IDIUse=1 WtCom= 1.00D+00 WtEn= 0.00D+00
 Coeff-Com:  0.449D-02 0.400D-01 0.208D+00 0.234D+00 0.513D+00
 Coeff:      0.449D-02 0.400D-01 0.208D+00 0.234D+00 0.513D+00
 Gap=     0.192 Goal=   None    Shift=    0.000
 RMSDP=9.58D-05 MaxDP=2.81D-03 DE=-1.69D-02 OVMax= 6.00D-03

 Cycle   6  Pass 1  IDiag  1:
 RMSU=  7.32D-05    CP:  9.94D-01  7.74D-02  7.27D-01  4.29D-01  7.43D-01
 E= -240.403646133073     Delta-E=       -0.000310584133 Rises=F Damp=F
 DIIS: error= 8.80D-04 at cycle   6 NSaved=   6.
 NSaved= 6 IEnMin= 6 EnMin= -240.403646133073     IErMin= 6 ErrMin= 8.80D-04
 ErrMax= 8.80D-04  0.00D+00 EMaxC= 1.00D+00 BMatC= 7.21D-05 BMatP= 4.39D-04
 IDIUse=1 WtCom= 1.00D+00 WtEn= 0.00D+00
 Coeff-Com: -0.312D-03 0.806D-02 0.468D-01 0.801D-01 0.317D+00 0.549D+00
 Coeff:     -0.312D-03 0.806D-02 0.468D-01 0.801D-01 0.317D+00 0.549D+00
 Gap=     0.193 Goal=   None    Shift=    0.000
 RMSDP=3.73D-05 MaxDP=7.47D-04 DE=-3.11D-04 OVMax= 2.33D-03

 Cycle   7  Pass 1  IDiag  1:
 RMSU=  1.38D-05    CP:  9.94D-01  7.37D-02  7.31D-01  4.44D-01  7.76D-01
                    CP:  6.32D-01
 E= -240.403711614606     Delta-E=       -0.000065481533 Rises=F Damp=F
 DIIS: error= 8.21D-05 at cycle   7 NSaved=   7.
 NSaved= 7 IEnMin= 7 EnMin= -240.403711614606     IErMin= 7 ErrMin= 8.21D-05
 ErrMax= 8.21D-05  0.00D+00 EMaxC= 1.00D+00 BMatC= 8.80D-07 BMatP= 7.21D-05
 IDIUse=1 WtCom= 1.00D+00 WtEn= 0.00D+00
 Coeff-Com: -0.106D-03 0.129D-02 0.114D-01 0.246D-01 0.105D+00 0.212D+00
 Coeff-Com:  0.646D+00
 Coeff:     -0.106D-03 0.129D-02 0.114D-01 0.246D-01 0.105D+00 0.212D+00
 Coeff:      0.646D+00
 Gap=     0.193 Goal=   None    Shift=    0.000
 RMSDP=6.93D-06 MaxDP=1.60D-04 DE=-6.55D-05 OVMax= 2.92D-04

 Cycle   8  Pass 1  IDiag  1:
 RMSU=  4.07D-06    CP:  9.94D-01  7.29D-02  7.31D-01  4.45D-01  7.73D-01
                    CP:  6.42D-01  6.77D-01
 E= -240.403712143602     Delta-E=       -0.000000528996 Rises=F Damp=F
 DIIS: error= 5.70D-05 at cycle   8 NSaved=   8.
 NSaved= 8 IEnMin= 8 EnMin= -240.403712143602     IErMin= 8 ErrMin= 5.70D-05
 ErrMax= 5.70D-05  0.00D+00 EMaxC= 1.00D+00 BMatC= 3.21D-07 BMatP= 8.80D-07
 IDIUse=1 WtCom= 1.00D+00 WtEn= 0.00D+00
 Coeff-Com: -0.467D-04 0.605D-03 0.636D-02 0.144D-01 0.616D-01 0.129D+00
 Coeff-Com:  0.457D+00 0.332D+00
 Coeff:     -0.467D-04 0.605D-03 0.636D-02 0.144D-01 0.616D-01 0.129D+00
 Coeff:      0.457D+00 0.332D+00
 Gap=     0.193 Goal=   None    Shift=    0.000
 RMSDP=3.37D-06 MaxDP=5.99D-05 DE=-5.29D-07 OVMax= 1.88D-04

 Cycle   9  Pass 1  IDiag  1:
 RMSU=  1.57D-06    CP:  9.94D-01  7.28D-02  7.31D-01  4.45D-01  7.74D-01
                    CP:  6.37D-01  7.35D-01  3.00D-01
 E= -240.403712398785     Delta-E=       -0.000000255183 Rises=F Damp=F
 DIIS: error= 1.39D-05 at cycle   9 NSaved=   9.
 NSaved= 9 IEnMin= 9 EnMin= -240.403712398785     IErMin= 9 ErrMin= 1.39D-05
 ErrMax= 1.39D-05  0.00D+00 EMaxC= 1.00D+00 BMatC= 2.16D-08 BMatP= 3.21D-07
 IDIUse=1 WtCom= 1.00D+00 WtEn= 0.00D+00
 Coeff-Com:  0.106D-04-0.164D-04 0.293D-03 0.991D-03 0.378D-02 0.952D-02
 Coeff-Com:  0.687D-01 0.215D+00 0.702D+00
 Coeff:      0.106D-04-0.164D-04 0.293D-03 0.991D-03 0.378D-02 0.952D-02
 Coeff:      0.687D-01 0.215D+00 0.702D+00
 Gap=     0.193 Goal=   None    Shift=    0.000
 RMSDP=8.56D-07 MaxDP=1.55D-05 DE=-2.55D-07 OVMax= 4.70D-05

 Cycle  10  Pass 1  IDiag  1:
 RMSU=  2.84D-07    CP:  9.94D-01  7.28D-02  7.31D-01  4.45D-01  7.73D-01
                    CP:  6.38D-01  7.28D-01  4.57D-01  7.13D-01
 E= -240.403712417334     Delta-E=       -0.000000018549 Rises=F Damp=F
 DIIS: error= 1.46D-06 at cycle  10 NSaved=  10.
 NSaved=10 IEnMin=10 EnMin= -240.403712417334     IErMin=10 ErrMin= 1.46D-06
 ErrMax= 1.46D-06  0.00D+00 EMaxC= 1.00D+00 BMatC= 3.75D-10 BMatP= 2.16D-08
 IDIUse=1 WtCom= 1.00D+00 WtEn= 0.00D+00
 Coeff-Com:  0.219D-05-0.136D-04-0.980D-05 0.136D-03 0.324D-03 0.135D-02
 Coeff-Com:  0.196D-01 0.832D-01 0.300D+00 0.595D+00
 Coeff:      0.219D-05-0.136D-04-0.980D-05 0.136D-03 0.324D-03 0.135D-02
 Coeff:      0.196D-01 0.832D-01 0.300D+00 0.595D+00
 Gap=     0.193 Goal=   None    Shift=    0.000
 RMSDP=1.73D-07 MaxDP=3.54D-06 DE=-1.85D-08 OVMax= 8.54D-06

 Cycle  11  Pass 1  IDiag  1:
 RMSU=  8.05D-08    CP:  9.94D-01  7.28D-02  7.31D-01  4.45D-01  7.73D-01
                    CP:  6.38D-01  7.31D-01  4.36D-01  7.48D-01  6.76D-01
 E= -240.403712417647     Delta-E=       -0.000000000312 Rises=F Damp=F
 DIIS: error= 7.56D-07 at cycle  11 NSaved=  11.
 NSaved=11 IEnMin=11 EnMin= -240.403712417647     IErMin=11 ErrMin= 7.56D-07
 ErrMax= 7.56D-07  0.00D+00 EMaxC= 1.00D+00 BMatC= 5.56D-11 BMatP= 3.75D-10
 IDIUse=1 WtCom= 1.00D+00 WtEn= 0.00D+00
 Coeff-Com:  0.805D-08-0.607D-05-0.248D-04 0.212D-04-0.398D-04 0.182D-03
 Coeff-Com:  0.734D-02 0.359D-01 0.133D+00 0.347D+00 0.476D+00
 Coeff:      0.805D-08-0.607D-05-0.248D-04 0.212D-04-0.398D-04 0.182D-03
 Coeff:      0.734D-02 0.359D-01 0.133D+00 0.347D+00 0.476D+00
 Gap=     0.193 Goal=   None    Shift=    0.000
 RMSDP=5.44D-08 MaxDP=8.77D-07 DE=-3.12D-10 OVMax= 2.90D-06

 Cycle  12  Pass 1  IDiag  1:
 RMSU=  1.97D-08    CP:  9.94D-01  7.28D-02  7.31D-01  4.45D-01  7.73D-01
                    CP:  6.38D-01  7.30D-01  4.44D-01  7.38D-01  7.14D-01
                    CP:  5.84D-01
 E= -240.403712417704     Delta-E=       -0.000000000058 Rises=F Damp=F
 DIIS: error= 8.18D-08 at cycle  12 NSaved=  12.
 NSaved=12 IEnMin=12 EnMin= -240.403712417704     IErMin=12 ErrMin= 8.18D-08
 ErrMax= 8.18D-08  0.00D+00 EMaxC= 1.00D+00 BMatC= 1.14D-12 BMatP= 5.56D-11
 IDIUse=1 WtCom= 1.00D+00 WtEn= 0.00D+00
 Coeff-Com: -0.152D-06-0.106D-05-0.101D-04-0.779D-05-0.548D-04-0.107D-03
 Coeff-Com:  0.738D-03 0.495D-02 0.193D-01 0.692D-01 0.169D+00 0.737D+00
 Coeff:     -0.152D-06-0.106D-05-0.101D-04-0.779D-05-0.548D-04-0.107D-03
 Coeff:      0.738D-03 0.495D-02 0.193D-01 0.692D-01 0.169D+00 0.737D+00
 Gap=     0.193 Goal=   None    Shift=    0.000
 RMSDP=7.62D-09 MaxDP=2.06D-07 DE=-5.76D-11 OVMax= 3.21D-07

 Error on total polarization charges =  0.01435
 SCF Done:  E(RPBE-PBE) =  -240.403712418     A.U. after   12 cycles
            NFock= 12  Conv=0.76D-08     -V/T= 2.0046
 KE= 2.392993167029D+02 PE=-8.065570017757D+02 EE= 2.081710449903D+02
 Leave Link  502 at Tue Mar 10 14:50:31 2020, MaxMem=  7516192768 cpu:             140.8 elap:              11.8
 (Enter /opt/g16/l701.exe)
 ... and contract with generalized density number  0.
 Compute integral first derivatives.
   1 Symmetry operations used in ECPInt.
 ECPInt:  NShTT=    1540 NPrTT=    5160 LenC2=    1509 LenP2D=    4185.
 LDataN:  DoStor=T MaxTD1= 7 Len=  274
 D1PCM: C-PCM CHGder 1st derivatives, ID1Alg=3 FixD1E=F DoIter=F DoCFld=F I1PDM=0.
 GePol: Maximum number of non-zero 1st derivatives   =     244
 Leave Link  701 at Tue Mar 10 14:50:31 2020, MaxMem=  7516192768 cpu:               5.9 elap:               0.5
 (Enter /opt/g16/l702.exe)
 L702 exits ... SP integral derivatives will be done elsewhere.
 Leave Link  702 at Tue Mar 10 14:50:31 2020, MaxMem=  7516192768 cpu:               0.2 elap:               0.0
 (Enter /opt/g16/l703.exe)
 Integral derivatives from FoFJK, PRISM(SPDF).
 Compute integral first derivatives, UseDBF=T ICtDFT=           0.
 Calling FoFJK, ICntrl=      2527 FMM=F ISym2X=0 I1Cent= 4 IOpClX= 0 NMat=1 NMatS=1 NMatT=0.
 FoFJK:  IHMeth= 1 ICntrl=    2527 DoSepK=F KAlg= 0 I1Cent=           4 FoldK=F
 IRaf=         0 NMat=       1 IRICut=       1 DoRegI=T DoRafI=F ISym2E= 0 IDoP0=0 IntGTp=1.
 FoFCou: FMM=F IPFlag=           0 FMFlag=      100000 FMFlg1=         800
         NFxFlg=           0 DoJE=F BraDBF=F KetDBF=T FulRan=T
         wScrn=  0.000000 ICntrl=      2527 IOpCl=  0 I1Cent=           4 NGrid=           0
         NMat0=    1 NMatS0=      1 NMatT0=    0 NMatD0=    1 NMtDS0=    0 NMtDT0=    0
 Symmetry not used in FoFCou.
 Leave Link  703 at Tue Mar 10 14:50:32 2020, MaxMem=  7516192768 cpu:               7.4 elap:               0.6
 (Enter /opt/g16/l716.exe)
 Dipole        = 1.71163694D-02 4.86594528D-01-1.68484723D-06
 ***** Axes restored to original set *****
 -------------------------------------------------------------------
 Center     Atomic                   Forces (Hartrees/Bohr)
 Number     Number              X              Y              Z
 -------------------------------------------------------------------
      1        6           0.049213413    0.022347285   -0.002301200
      2        7          -0.017067663   -0.004342403    0.000447140
      3        7          -0.027046704   -0.053290842    0.005487569
      4        6          -0.012052100    0.048996920   -0.005045294
      5        7           0.006953054   -0.013710960    0.001411785
 -------------------------------------------------------------------
 Cartesian Forces:  Max     0.053290842 RMS     0.025361788
 Leave Link  716 at Tue Mar 10 14:50:32 2020, MaxMem=  7516192768 cpu:               0.2 elap:               0.0
 (Enter /opt/g16/l103.exe)

 GradGradGradGradGradGradGradGradGradGradGradGradGradGradGradGradGradGrad
 Berny optimization.
 Using GEDIIS/GDIIS optimizer.
 FormGI is forming the generalized inverse of G from B-inverse, IUseBI=4.
 Internal  Forces:  Max     0.034285931 RMS     0.019960602
 Search for a local minimum.
 Step number   2 out of a maximum of   20
 All quantities printed in internal units (Hartrees-Bohrs-Radians)
 RMS Force = .19961D-01 SwitMx=.10000D-02 MixMth= 1
 Mixed Optimization -- RFO/linear search
 Update second derivatives using D2CorX and points    1    2
 DE= -1.93D-02 DEPred=-1.94D-02 R= 9.95D-01
 TightC=F SS=  1.41D+00  RLast= 3.00D-01 DXNew= 5.0454D-01 9.0000D-01
 Trust test= 9.95D-01 RLast= 3.00D-01 DXMaxT set to 5.05D-01
 The second derivative matrix:
                          R1        R2        R3        R4        A1
           R1           1.24988
           R2           0.03846   0.30848
           R3           0.03863  -0.06896   0.30761
           R4          -0.01909   0.03582   0.03600   1.25188
           A1          -0.01769   0.05240   0.05216  -0.01960   0.29965
           A2           0.01690  -0.04710  -0.04693   0.01828  -0.03698
           A3           0.00505  -0.01661  -0.01651   0.00584  -0.02003
           A4           0.00000  -0.00000  -0.00000   0.00000  -0.00000
           A5           0.00000  -0.00000  -0.00000   0.00000   0.00000
                          A2        A3        A4        A5
           A2           0.03676
           A3           0.01521   0.05642
           A4           0.00000   0.00000   0.00975
           A5          -0.00000  -0.00000  -0.00000   0.04850
 ITU=  1  0
 Use linear search instead of GDIIS.
     Eigenvalues ---    0.00975   0.01340   0.04850   0.05350   0.19188
     Eigenvalues ---    0.36669   0.37702   1.23819   1.27000
 RFO step:  Lambda=-2.71730279D-02 EMin= 9.74815526D-03
 Quartic linear search produced a step of  0.26535.
 Maximum step size (   0.505) exceeded in Quadratic search.
    -- Step size scaled by   0.714
 Iteration  1 RMS(Cart)=  0.11652692 RMS(Int)=  0.06648119
 Iteration  2 RMS(Cart)=  0.10560940 RMS(Int)=  0.00983731
 Iteration  3 RMS(Cart)=  0.00931740 RMS(Int)=  0.00001021
 Iteration  4 RMS(Cart)=  0.00001535 RMS(Int)=  0.00000000
 Iteration  5 RMS(Cart)=  0.00000000 RMS(Int)=  0.00000000
 ITry= 1 IFail=0 DXMaxC= 3.87D-01 DCOld= 1.00D+10 DXMaxT= 5.05D-01 DXLimC= 3.00D+00 Rises=F
 Variable       Old X    -DE/DX   Delta X   Delta X   Delta X     New X
                                 (Linear)    (Quad)   (Total)
    R1        2.21456   0.01657   0.00535   0.02302   0.02837   2.24293
    R2        2.59578  -0.03408  -0.04040  -0.15121  -0.19161   2.40417
    R3        2.59567  -0.03429  -0.04043  -0.15174  -0.19217   2.40350
    R4        2.21457   0.01536   0.00535   0.02213   0.02748   2.24204
    A1        1.88882   0.02347  -0.00720   0.06953   0.06233   1.95116
    A2        3.35692  -0.01322   0.04832  -0.44817  -0.39985   2.95707
    A3        3.27513  -0.00356   0.02502  -0.04429  -0.01927   3.25586
    A4        3.14159  -0.00000   0.00000  -0.00000  -0.00000   3.14159
    A5        3.14160  -0.00000  -0.00000  -0.00000  -0.00000   3.14159
         Item               Value     Threshold  Converged?
 Maximum Force            0.034286     0.000450     NO 
 RMS     Force            0.019961     0.000300     NO 
 Maximum Displacement     0.386821     0.001800     NO 
 RMS     Displacement     0.212761     0.001200     NO 
 Predicted change in Energy=-1.631933D-02
 Lowest energy point so far.  Saving SCF results.
 GradGradGradGradGradGradGradGradGradGradGradGradGradGradGradGradGradGrad

 Leave Link  103 at Tue Mar 10 14:50:32 2020, MaxMem=  7516192768 cpu:               0.1 elap:               0.0
 (Enter /opt/g16/l202.exe)
                          Input orientation:                          
 ---------------------------------------------------------------------
 Center     Atomic      Atomic             Coordinates (Angstroms)
 Number     Number       Type             X           Y           Z
 ---------------------------------------------------------------------
      1          6           0        1.203091   -0.129851   -0.012059
      2          7           0        0.039385   -0.362145    0.011861
      3          7           0        2.475208   -0.112745   -0.013819
      4          6           0        2.963318   -1.281055    0.106493
      5          7           0        3.540589   -2.312133    0.212675
 ---------------------------------------------------------------------
                    Distance matrix (angstroms):
                    1          2          3          4          5
     1  C    0.000000
     2  N    1.186906   0.000000
     3  N    1.272233   2.448692   0.000000
     4  C    2.106591   3.066389   1.271878   0.000000
     5  N    3.205738   4.012632   2.454311   1.186439   0.000000
 Stoichiometry    C2N3(1-)
 Framework group  C1[X(C2N3)]
 Deg. of freedom     9
 Full point group                 C1      NOp   1
 RotChk:  IX=2 Diff= 7.53D-03
 Largest Abelian subgroup         C1      NOp   1
 Largest concise Abelian subgroup C1      NOp   1
                         Standard orientation:                         
 ---------------------------------------------------------------------
 Center     Atomic      Atomic             Coordinates (Angstroms)
 Number     Number       Type             X           Y           Z
 ---------------------------------------------------------------------
      1          6           0       -1.088226    0.200651    0.000000
      2          7           0       -1.975731   -0.587436   -0.000000
      3          7           0        0.001924    0.856509    0.000000
      4          6           0        1.015349    0.087976   -0.000000
      5          7           0        2.036273   -0.516467    0.000000
 ---------------------------------------------------------------------
 Rotational constants (GHZ):          26.0288268           3.6278408           3.1840543
 Leave Link  202 at Tue Mar 10 14:50:32 2020, MaxMem=  7516192768 cpu:               0.1 elap:               0.0
 (Enter /opt/g16/l301.exe)
 Standard basis: def2TZVP (5D, 7F)
 Ernie: Thresh=  0.10000D-02 Tol=  0.10000D-05 Strict=F.
 There are   180 symmetry adapted cartesian basis functions of A   symmetry.
 There are   155 symmetry adapted basis functions of A   symmetry.
   155 basis functions,   255 primitive gaussians,   180 cartesian basis functions
    17 alpha electrons       17 beta electrons
       nuclear repulsion energy       123.2430625836 Hartrees.
 IExCor= 1009 DFT=T Ex=PBE Corr=PBE ExCW=0 ScaHFX=  0.000000
 ScaDFX=  1.000000  1.000000  1.000000  1.000000 ScalE2=  1.000000  1.000000
 IRadAn=      5 IRanWt=     -1 IRanGd=            0 ICorTp=0 IEmpDi=  4
 NAtoms=    5 NActive=    5 NUniq=    5 SFac= 1.00D+00 NAtFMM=   60 NAOKFM=F Big=F
 Integral buffers will be    131072 words long.
 Raffenetti 2 integral format.
 Two-electron integral symmetry is turned on.
 Standard density basis: W06 (5D, 7F)
   245 Density fitting functions
 There are   245 symmetry adapted density basis functions of A   symmetry.
 ------------------------------------------------------------------------------
 Polarizable Continuum Model (PCM)
 =================================
 Model                : C-PCM.
 Atomic radii         : UFF (Universal Force Field).
 Polarization charges : Total charges.
 Charge compensation  : None.
 Solution method      : On-the-fly selection.
 Cavity type          : Scaled VdW (van der Waals Surface) (Alpha=1.100).
 Cavity algorithm     : GePol (No added spheres)
                        Default sphere list used, NSphG=    5.
                        Lebedev-Laikov grids with approx.  5.0 points / Ang**2.
                        Smoothing algorithm: York/Karplus (Gamma=1.0000).
                        Polarization charges: spherical gaussians, with
                                              point-specific exponents (IZeta= 3).
                        Self-potential: point-specific (ISelfS= 7).
                        Self-field    : sphere-specific E.n sum rule (ISelfD= 2).
 1st derivatives      : Analytical E(r).r(x)/FMM algorithm (CHGder, D1EAlg=3).
                        Cavity 1st derivative terms included.
 Solvent              : Generic,
                        Eps                           = 999.000000
                        Eps(infinity)                 =   0.000000
                        RSolv                         =   0.000000 Ang.
                        Molar volume                  =   0.000000 cm**3/mol
                        Thermal expansion coefficient =   0.000000 K**-1
                        Absolute temperature          = 298.150000 K
                        Numeral density               =   0.000000 Ang**-3
                        Hydrogen bond acidity         =   0.000000
                        Hydrogen bond basicity        =   0.000000
                        Surface tension at interface  =   0.000000 (cal/mol)*Ang**-2
                        Carbon aromaticity            =   0.000000
                        Electronegative halogenicity  =   0.000000
 ------------------------------------------------------------------------------
 Spheres list:
 ISph  on   Nord     Re0    Alpha      Xe            Ye            Ze
    1   C      1    1.9255  1.100     -1.088226      0.200651      0.000000
    2   N      2    1.8300  1.100     -1.975731     -0.587436     -0.000000
    3   N      3    1.8300  1.100      0.001924      0.856509      0.000000
    4   C      4    1.9255  1.100      1.015349      0.087976     -0.000000
    5   N      5    1.8300  1.100      2.036273     -0.516467      0.000000
 ------------------------------------------------------------------------------
 GePol: Number of generator spheres                  =       5
 GePol: Total number of spheres                      =       5
 GePol: Number of exposed spheres                    =       5 (100.00%)
 GePol: Number of points                             =     779
 GePol: Average weight of points                     =       0.14
 GePol: Minimum weight of points                     =   0.35D-06
 GePol: Maximum weight of points                     =    0.20577
 GePol: Number of points with low weight             =      22
 GePol: Fraction of low-weight points (<1% of avg)   =       2.82%
 GePol: Cavity surface area                          =    112.945 Ang**2
 GePol: Cavity volume                                =     97.387 Ang**3
 Leave Link  301 at Tue Mar 10 14:50:32 2020, MaxMem=  7516192768 cpu:               0.8 elap:               0.1
 (Enter /opt/g16/l302.exe)
 NPDir=0 NMtPBC=     1 NCelOv=     1 NCel=       1 NClECP=     1 NCelD=      1
         NCelK=      1 NCelE2=     1 NClLst=     1 CellRange=     0.0.
 One-electron integrals computed using PRISM.
 One-electron integral symmetry used in STVInt
   1 Symmetry operations used in ECPInt.
 ECPInt:  NShTT=    1540 NPrTT=    5160 LenC2=    1516 LenP2D=    4232.
 LDataN:  DoStor=T MaxTD1= 6 Len=  172
 NBasis=   155 RedAO= T EigKep=  1.23D-04  NBF=   155
 NBsUse=   155 1.00D-06 EigRej= -1.00D+00 NBFU=   155
 NBasis=      155 NBas6D=      180 NTT=       12090   NTT6D=    16290
 NDBShl=       75 NDBF=        245 NDBF6D=      305  NNucDB=        0
 IDenFi=        2 ISolve=        0 FullAP=F BlkAPC=T NucTyp=        0
 TolInv= 1.00D-06 TolIt=  1.00D-10 IR12=0.
 FoFCou: FMM=F IPFlag=           0 FMFlag=           0 FMFlg1=           0
         NFxFlg=           0 DoJE=F BraDBF=T KetDBF=T FulRan=T
         wScrn=  0.000000 ICntrl=       600 IOpCl=  3 I1Cent=           6 NGrid=           0
         NMat0=    1 NMatS0=    305 NMatT0=    0 NMatD0=    1 NMtDS0=    0 NMtDT0=    0
 Petite list used in FoFCou.
 DBF EigKep=  8.69D-06 EigRej= -1.00D+00
 NDBF=    245  NBFD=   245
 NRank=   245 NBFDU=   245
 S*AI*S=  5.93490866634    
 Precomputing XC quadrature grid using
 IXCGrd= 4 IRadAn=           5 IRanWt=          -1 IRanGd=           0 AccXCQ= 0.00D+00.
 Generated NRdTot=       0 NPtTot=           0 NUsed=           0 NTot=          32
 NSgBfM=   179   179   179   179   179 MxSgAt=     5 MxSgA2=     5.
 Leave Link  302 at Tue Mar 10 14:50:32 2020, MaxMem=  7516192768 cpu:               3.2 elap:               0.3
 (Enter /opt/g16/l303.exe)
 DipDrv:  MaxL=1.
 Leave Link  303 at Tue Mar 10 14:50:32 2020, MaxMem=  7516192768 cpu:               0.3 elap:               0.0
 (Enter /opt/g16/l401.exe)
 Initial guess from the checkpoint file:  "ncn2.chk"
 B after Tr=    -0.000000   -0.000000    0.000000
         Rot=    0.999995   -0.000000   -0.000000   -0.003288 Ang=  -0.38 deg.
 Guess basis will be translated and rotated to current coordinates.
 Recovered     1 saved fitting vectors from chk file.
 JPrj=2 DoOrth=T DoCkMO=T.
 Generating alternative initial guess.
 ExpMin= 9.52D-02 ExpMax= 1.97D+04 ExpMxC= 6.73D+02 IAcc=3 IRadAn=         5 AccDes= 0.00D+00
 Harris functional with IExCor= 1009 and IRadAn=       5 diagonalized for initial guess.
 HarFok:  IExCor= 1009 AccDes= 0.00D+00 IRadAn=         5 IDoV= 1 UseB2=F ITyADJ=14
 ICtDFT=  3500011 ScaDFX=  1.000000  1.000000  1.000000  1.000000
 FoFCou: FMM=F IPFlag=           0 FMFlag=      100000 FMFlg1=           0
         NFxFlg=           0 DoJE=T BraDBF=F KetDBF=T FulRan=T
         wScrn=  0.000000 ICntrl=       500 IOpCl=  0 I1Cent=   200000004 NGrid=           0
         NMat0=    1 NMatS0=      1 NMatT0=    0 NMatD0=    1 NMtDS0=    0 NMtDT0=    0
 Petite list used in FoFCou.
 Harris En= -240.485978694391    
 Leave Link  401 at Tue Mar 10 14:50:33 2020, MaxMem=  7516192768 cpu:               4.6 elap:               0.4
 (Enter /opt/g16/l502.exe)
 Density fitting will be used, IDenFit= 2 NucTyp=  0.
 Integral symmetry usage will be decided dynamically.
 Closed shell SCF:
 Using DIIS extrapolation, IDIIS=  1040.
 NGot=  7516192768 LenX=  7516124027 LenY=  7516091186
 Requested convergence on RMS density matrix=1.00D-08 within 128 cycles.
 Requested convergence on MAX density matrix=1.00D-06.
 Requested convergence on             energy=1.00D-06.
 No special actions if energy rises.
 Fock matrices will be formed incrementally for  20 cycles.

 Cycle   1  Pass 1  IDiag  1:
 FoFCou: FMM=F IPFlag=           0 FMFlag=      100000 FMFlg1=           0
         NFxFlg=           0 DoJE=T BraDBF=T KetDBF=F FulRan=T
         wScrn=  0.000000 ICntrl=       500 IOpCl=  0 I1Cent=           5 NGrid=           0
         NMat0=    1 NMatS0=      1 NMatT0=    0 NMatD0=    1 NMtDS0=    0 NMtDT0=    0
 Symmetry not used in FoFCou.
 FoFJK:  IHMeth= 1 ICntrl=     500 DoSepK=F KAlg= 0 I1Cent=           4 FoldK=F
 IRaf= 970000000 NMat=       1 IRICut=       1 DoRegI=T DoRafI=F ISym2E= 0 IDoP0=0 IntGTp=1.
 Inv3:  Mode=1 IEnd=     1820523.
 Iteration    1 A*A^-1 deviation from unit magnitude is 3.77D-15 for    363.
 Iteration    1 A*A^-1 deviation from orthogonality  is 1.43D-15 for    728    206.
 Iteration    1 A^-1*A deviation from unit magnitude is 3.55D-15 for    363.
 Iteration    1 A^-1*A deviation from orthogonality  is 1.55D-15 for    581    117.
 E= -240.329427925438    
 DIIS: error= 1.63D-02 at cycle   1 NSaved=   1.
 NSaved= 1 IEnMin= 1 EnMin= -240.329427925438     IErMin= 1 ErrMin= 1.63D-02
 ErrMax= 1.63D-02  0.00D+00 EMaxC= 1.00D-01 BMatC= 6.59D-02 BMatP= 6.59D-02
 IDIUse=3 WtCom= 8.37D-01 WtEn= 1.63D-01
 Coeff-Com:  0.100D+01
 Coeff-En:   0.100D+01
 Coeff:      0.100D+01
 Recover alternate guess density for next cycle.
 RMSDP=4.41D-03 MaxDP=8.93D-02              OVMax= 0.00D+00

 Cycle   2  Pass 1  IDiag  1:
 RMSU=  4.40D-03    CP:  9.82D-01
 E= -240.263273971450     Delta-E=        0.066153953988 Rises=F Damp=F
 Switch densities from cycles 1 and 2 for lowest energy.
 DIIS: error= 4.60D-02 at cycle   2 NSaved=   2.
 NSaved= 2 IEnMin= 1 EnMin= -240.329427925438     IErMin= 1 ErrMin= 1.63D-02
 ErrMax= 4.60D-02  0.00D+00 EMaxC= 1.00D+00 BMatC= 1.64D-01 BMatP= 6.59D-02
 IDIUse=1 WtCom= 1.00D+00 WtEn= 0.00D+00
 Coeff-Com:  0.712D+00 0.288D+00
 Coeff:      0.712D+00 0.288D+00
 Gap=     0.193 Goal=   None    Shift=    0.000
 RMSDP=3.25D-03 MaxDP=4.81D-02 DE= 6.62D-02 OVMax= 1.52D-01

 Cycle   3  Pass 1  IDiag  1:
 RMSU=  3.22D-03    CP:  1.00D+00 -9.24D-02
 E= -240.310485776306     Delta-E=       -0.047211804856 Rises=F Damp=F
 DIIS: error= 3.76D-02 at cycle   3 NSaved=   3.
 NSaved= 3 IEnMin= 1 EnMin= -240.329427925438     IErMin= 1 ErrMin= 1.63D-02
 ErrMax= 3.76D-02  0.00D+00 EMaxC= 1.00D+00 BMatC= 1.06D-01 BMatP= 6.59D-02
 IDIUse=1 WtCom= 1.00D+00 WtEn= 0.00D+00
 Coeff-Com:  0.243D+00 0.325D+00 0.432D+00
 Coeff:      0.243D+00 0.325D+00 0.432D+00
 Gap=     0.196 Goal=   None    Shift=    0.000
 RMSDP=2.26D-03 MaxDP=5.20D-02 DE=-4.72D-02 OVMax= 1.27D-01

 Cycle   4  Pass 1  IDiag  1:
 RMSU=  1.48D-03    CP:  9.82D-01  1.83D-01  6.33D-01
 E= -240.364955231933     Delta-E=       -0.054469455627 Rises=F Damp=F
[...]

 Cycle   6  Pass 1  IDiag  1:
 RMSU=  1.40D-07    CP:  1.00D+00  9.59D-01  2.59D-01  5.34D-01  6.01D-01
 E= -240.412448439809     Delta-E=       -0.000000002416 Rises=F Damp=F
 DIIS: error= 1.59D-06 at cycle   6 NSaved=   6.
 NSaved= 6 IEnMin= 6 EnMin= -240.412448439809     IErMin= 6 ErrMin= 1.59D-06
 ErrMax= 1.59D-06  0.00D+00 EMaxC= 1.00D-01 BMatC= 2.40D-10 BMatP= 2.96D-09
 IDIUse=1 WtCom= 1.00D+00 WtEn= 0.00D+00
 Coeff-Com:  0.379D-03 0.104D+00 0.325D-01 0.217D+00 0.277D+00 0.369D+00
 Coeff:      0.379D-03 0.104D+00 0.325D-01 0.217D+00 0.277D+00 0.369D+00
 Gap=     0.209 Goal=   None    Shift=    0.000
 RMSDP=1.29D-07 MaxDP=2.47D-06 DE=-2.42D-09 OVMax= 7.95D-06

 Cycle   7  Pass 1  IDiag  1:
 RMSU=  7.34D-08    CP:  1.00D+00  9.59D-01  2.63D-01  5.69D-01  5.37D-01
                    CP:  3.54D-01
 E= -240.412448440004     Delta-E=       -0.000000000195 Rises=F Damp=F
 DIIS: error= 6.01D-07 at cycle   7 NSaved=   7.
 NSaved= 7 IEnMin= 7 EnMin= -240.412448440004     IErMin= 7 ErrMin= 6.01D-07
 ErrMax= 6.01D-07  0.00D+00 EMaxC= 1.00D-01 BMatC= 3.15D-11 BMatP= 2.40D-10
 IDIUse=1 WtCom= 1.00D+00 WtEn= 0.00D+00
 Coeff-Com: -0.186D-04 0.245D-01 0.967D-02 0.533D-01 0.828D-01 0.269D+00
 Coeff-Com:  0.561D+00
 Coeff:     -0.186D-04 0.245D-01 0.967D-02 0.533D-01 0.828D-01 0.269D+00
 Coeff:      0.561D+00
 Gap=     0.209 Goal=   None    Shift=    0.000
 RMSDP=3.66D-08 MaxDP=7.52D-07 DE=-1.95D-10 OVMax= 2.26D-06

 Cycle   8  Pass 1  IDiag  1:
 RMSU=  1.06D-08    CP:  1.00D+00  9.59D-01  2.64D-01  5.61D-01  5.55D-01
                    CP:  4.97D-01  6.53D-01
 E= -240.412448440033     Delta-E=       -0.000000000030 Rises=F Damp=F
 DIIS: error= 8.88D-08 at cycle   8 NSaved=   8.
 NSaved= 8 IEnMin= 8 EnMin= -240.412448440033     IErMin= 8 ErrMin= 8.88D-08
 ErrMax= 8.88D-08  0.00D+00 EMaxC= 1.00D-01 BMatC= 1.18D-12 BMatP= 3.15D-11
 IDIUse=1 WtCom= 1.00D+00 WtEn= 0.00D+00
 Coeff-Com: -0.158D-04 0.866D-02 0.382D-02 0.196D-01 0.333D-01 0.137D+00
 Coeff-Com:  0.320D+00 0.478D+00
 Coeff:     -0.158D-04 0.866D-02 0.382D-02 0.196D-01 0.333D-01 0.137D+00
 Coeff:      0.320D+00 0.478D+00
 Gap=     0.209 Goal=   None    Shift=    0.000
 RMSDP=4.96D-09 MaxDP=1.31D-07 DE=-2.96D-11 OVMax= 3.10D-07

 Error on total polarization charges =  0.01477
 SCF Done:  E(RPBE-PBE) =  -240.412448440     A.U. after    8 cycles
            NFock=  8  Conv=0.50D-08     -V/T= 2.0042
 KE= 2.394055766802D+02 PE=-8.079901857959D+02 EE= 2.087604512470D+02
 Leave Link  502 at Tue Mar 10 14:51:46 2020, MaxMem=  7516192768 cpu:              97.4 elap:               8.2
 (Enter /opt/g16/l701.exe)
 ... and contract with generalized density number  0.
 Compute integral first derivatives.
   1 Symmetry operations used in ECPInt.
 ECPInt:  NShTT=    1540 NPrTT=    5160 LenC2=    1506 LenP2D=    4180.
 LDataN:  DoStor=T MaxTD1= 7 Len=  274
 D1PCM: C-PCM CHGder 1st derivatives, ID1Alg=3 FixD1E=F DoIter=F DoCFld=F I1PDM=0.
 GePol: Maximum number of non-zero 1st derivatives   =     237
 Leave Link  701 at Tue Mar 10 14:51:47 2020, MaxMem=  7516192768 cpu:               5.9 elap:               0.5
 (Enter /opt/g16/l702.exe)
 L702 exits ... SP integral derivatives will be done elsewhere.
 Leave Link  702 at Tue Mar 10 14:51:47 2020, MaxMem=  7516192768 cpu:               0.2 elap:               0.0
 (Enter /opt/g16/l703.exe)
 Integral derivatives from FoFJK, PRISM(SPDF).
 Compute integral first derivatives, UseDBF=T ICtDFT=           0.
 Calling FoFJK, ICntrl=      2527 FMM=F ISym2X=0 I1Cent= 4 IOpClX= 0 NMat=1 NMatS=1 NMatT=0.
 FoFJK:  IHMeth= 1 ICntrl=    2527 DoSepK=F KAlg= 0 I1Cent=           4 FoldK=F
 IRaf=         0 NMat=       1 IRICut=       1 DoRegI=T DoRafI=F ISym2E= 0 IDoP0=0 IntGTp=1.
 FoFCou: FMM=F IPFlag=           0 FMFlag=      100000 FMFlg1=         800
         NFxFlg=           0 DoJE=F BraDBF=F KetDBF=T FulRan=T
         wScrn=  0.000000 ICntrl=      2527 IOpCl=  0 I1Cent=           4 NGrid=           0
         NMat0=    1 NMatS0=      1 NMatT0=    0 NMatD0=    1 NMtDS0=    0 NMtDT0=    0
 Symmetry not used in FoFCou.
 Leave Link  703 at Tue Mar 10 14:51:48 2020, MaxMem=  7516192768 cpu:               7.4 elap:               0.6
 (Enter /opt/g16/l716.exe)
 Dipole        = 1.65288319D-04 4.83770630D-01 1.36828378D-06
 ***** Axes restored to original set *****
 -------------------------------------------------------------------
 Center     Atomic                   Forces (Hartrees/Bohr)
 Number     Number              X              Y              Z
 -------------------------------------------------------------------
      1        6          -0.000030779   -0.000003127   -0.000000046
      2        7           0.000018818   -0.000006058    0.000000824
      3        7           0.000049046   -0.000015346    0.000001703
      4        6          -0.000013699   -0.000013950    0.000001508
      5        7          -0.000023387    0.000038482   -0.000003989
 -------------------------------------------------------------------
 Cartesian Forces:  Max     0.000049046 RMS     0.000020689
 Leave Link  716 at Tue Mar 10 14:51:48 2020, MaxMem=  7516192768 cpu:               0.2 elap:               0.0
 (Enter /opt/g16/l103.exe)

 GradGradGradGradGradGradGradGradGradGradGradGradGradGradGradGradGradGrad
 Berny optimization.
 Using GEDIIS/GDIIS optimizer.
 FormGI is forming the generalized inverse of G from B-inverse, IUseBI=4.
 Internal  Forces:  Max     0.000044807 RMS     0.000024449
 Search for a local minimum.
 Step number   8 out of a maximum of   20
 All quantities printed in internal units (Hartrees-Bohrs-Radians)
 RMS Force = .24449D-04 SwitMx=.10000D-02 MixMth= 2
 Mixed Optimization -- En-DIIS/RFO-DIIS
 Swapping is turned off.
 Update second derivatives using D2CorX and points    1    3    2    4    5
                                                      6    7    8
 DE= -5.39D-07 DEPred=-5.34D-07 R= 1.01D+00
 Trust test= 1.01D+00 RLast= 2.29D-03 DXMaxT set to 5.55D-01
 The second derivative matrix:
                          R1        R2        R3        R4        A1
           R1           1.16775
           R2           0.02506   0.43618
           R3           0.03249   0.04144   0.55220
           R4          -0.10503   0.01907   0.06963   1.17493
           A1           0.01209   0.08368   0.09914   0.00925   0.12981
           A2           0.00574   0.00329  -0.03281  -0.00259  -0.01356
           A3           0.00006  -0.01173  -0.02138  -0.00872  -0.00979
           A4           0.00004   0.00002  -0.00013   0.00001  -0.00001
           A5          -0.00000  -0.00000   0.00003   0.00000   0.00000
                          A2        A3        A4        A5
           A2           0.10764
           A3          -0.00486   0.12508
           A4           0.00004  -0.00002   0.00975
           A5          -0.00001   0.00000  -0.00000   0.04850
 ITU=  0  1  1  1  1 -1  1  0
     Eigenvalues ---    0.00975   0.04850   0.08773   0.10716   0.12560
     Eigenvalues ---    0.42937   0.58668   1.07944   1.27761
 En-DIIS/RFO-DIIS/Sim-DIIS IScMMF=       -3 using points:     8    7
 RFO step:  Lambda=-1.16201669D-08.
 NNeg= 0 NGDIIS= 2 SimSw=  2.50D-01 Rises=F DC= -5.39D-07 SmlDif=  1.00D-05
 NRisDI= 0 DoIntr=F SqrtH=F CThrHd= 10.0 CDAdj=  3.0
 RMS Error=  0.1080760416D-03 NUsed= 2 OKEnD=F EnDIS=F
 InvSVX:  RCond= 1.31D-06 Info=           0 Equed=N FErr=  1.09D-15 BErr=  2.46D-17
 DidBck=F Rises=F RFO-DIIS coefs:    1.08995   -0.08995
 Iteration  1 RMS(Cart)=  0.00022999 RMS(Int)=  0.00000002
 Iteration  2 RMS(Cart)=  0.00000003 RMS(Int)=  0.00000000
 ITry= 1 IFail=0 DXMaxC= 3.87D-04 DCOld= 1.00D+10 DXMaxT= 5.55D-01 DXLimC= 3.00D+00 Rises=F
 Variable       Old X    -DE/DX   Delta X   Delta X   Delta X     New X
                                 (Linear)    (Quad)   (Total)
    R1        2.23549  -0.00002  -0.00001  -0.00001  -0.00002   2.23547
    R2        2.46607   0.00001  -0.00000   0.00009   0.00009   2.46615
    R3        2.46616  -0.00004   0.00011  -0.00013  -0.00003   2.46613
    R4        2.23550  -0.00004  -0.00001  -0.00003  -0.00004   2.23547
    A1        2.17624  -0.00003  -0.00009  -0.00019  -0.00028   2.17596
    A2        3.25359  -0.00001  -0.00013   0.00002  -0.00011   3.25348
    A3        3.25343   0.00001   0.00008   0.00000   0.00008   3.25352
    A4        3.14159   0.00000  -0.00000   0.00002   0.00002   3.14161
    A5        3.14159  -0.00000   0.00000  -0.00000  -0.00000   3.14159
         Item               Value     Threshold  Converged?
 Maximum Force            0.000045     0.000450     YES
 RMS     Force            0.000024     0.000300     YES
 Maximum Displacement     0.000387     0.001800     YES
 RMS     Displacement     0.000230     0.001200     YES
 Predicted change in Energy=-7.318140D-09
 Optimization completed.
    -- Stationary point found.
                           ----------------------------
                           !   Optimized Parameters   !
                           ! (Angstroms and Degrees)  !
 --------------------------                            --------------------------
 ! Name  Definition              Value          Derivative Info.                !
 --------------------------------------------------------------------------------
 ! R1    R(1,2)                  1.183          -DE/DX =    0.0                 !
 ! R2    R(1,3)                  1.305          -DE/DX =    0.0                 !
 ! R3    R(3,4)                  1.305          -DE/DX =    0.0                 !
 ! R4    R(4,5)                  1.183          -DE/DX =    0.0                 !
 ! A1    A(1,3,4)              124.6891         -DE/DX =    0.0                 !
 ! A2    L(2,1,3,5,-1)         186.4169         -DE/DX =    0.0                 !
 ! A3    L(3,4,5,2,-1)         186.408          -DE/DX =    0.0                 !
 ! A4    L(2,1,3,5,-2)         179.9996         -DE/DX =    0.0                 !
 ! A5    L(3,4,5,2,-2)         180.0            -DE/DX =    0.0                 !
 --------------------------------------------------------------------------------
 Lowest energy point so far.  Saving SCF results.
 Largest change from initial coordinates is atom    3       0.191 Angstoms.
 GradGradGradGradGradGradGradGradGradGradGradGradGradGradGradGradGradGrad

 Leave Link  103 at Tue Mar 10 14:51:48 2020, MaxMem=  7516192768 cpu:               0.1 elap:               0.0
 (Enter /opt/g16/l202.exe)
                          Input orientation:                          
 ---------------------------------------------------------------------
 Center     Atomic      Atomic             Coordinates (Angstroms)
 Number     Number       Type             X           Y           Z
 ---------------------------------------------------------------------
      1          6           0        1.067805   -0.222312   -0.002536
      2          7           0       -0.101541   -0.044245   -0.020877
      3          7           0        2.371752   -0.274105    0.002797
      4          6           0        3.071073   -1.370157    0.115669
      5          7           0        3.812501   -2.287111    0.210098
 ---------------------------------------------------------------------
                    Distance matrix (angstroms):
                    1          2          3          4          5
     1  C    0.000000
     2  N    1.182969   0.000000
     3  N    1.304986   2.484065   0.000000
     4  C    2.311840   3.441246   1.305036   0.000000
     5  N    3.441215   4.517026   2.484134   1.182978   0.000000
 Stoichiometry    C2N3(1-)
 Framework group  C1[X(C2N3)]
 Deg. of freedom     9
 Full point group                 C1      NOp   1
 RotChk:  IX=0 Diff= 1.42D-15
 Largest Abelian subgroup         C1      NOp   1
 Largest concise Abelian subgroup C1      NOp   1
                         Standard orientation:                         
 ---------------------------------------------------------------------
 Center     Atomic      Atomic             Coordinates (Angstroms)
 Number     Number       Type             X           Y           Z
 ---------------------------------------------------------------------
      1          6           0       -1.155905    0.053317    0.000002
      2          7           0       -2.258510   -0.375258   -0.000001
      3          7           0       -0.000031    0.659077   -0.000000
      4          6           0        1.155935    0.053385   -0.000000
      5          7           0        2.258516   -0.375278    0.000000
 ---------------------------------------------------------------------
 Rotational constants (GHZ):          50.0623566           2.8891403           2.7315030
 Leave Link  202 at Tue Mar 10 14:51:48 2020, MaxMem=  7516192768 cpu:               0.1 elap:               0.0
 (Enter /opt/g16/l601.exe)
 Copying SCF densities to generalized density rwf, IOpCl= 0 IROHF=0.

 **********************************************************************

            Population analysis using the SCF Density.

 **********************************************************************

 Orbital symmetries:
       Occupied  (A) (A) (A) (A) (A) (A) (A) (A) (A) (A) (A) (A)
                 (A) (A) (A) (A) (A)
       Virtual   (A) (A) (A) (A) (A) (A) (A) (A) (A) (A) (A) (A)
                 (A) (A) (A) (A) (A) (A) (A) (A) (A) (A) (A) (A)
                 (A) (A) (A) (A) (A) (A) (A) (A) (A) (A) (A) (A)
                 (A) (A) (A) (A) (A) (A) (A) (A) (A) (A) (A) (A)
                 (A) (A) (A) (A) (A) (A) (A) (A) (A) (A) (A) (A)
                 (A) (A) (A) (A) (A) (A) (A) (A) (A) (A) (A) (A)
                 (A) (A) (A) (A) (A) (A) (A) (A) (A) (A) (A) (A)
                 (A) (A) (A) (A) (A) (A) (A) (A) (A) (A) (A) (A)
                 (A) (A) (A) (A) (A) (A) (A) (A) (A) (A) (A) (A)
                 (A) (A) (A) (A) (A) (A) (A) (A) (A) (A) (A) (A)
                 (A) (A) (A) (A) (A) (A) (A) (A) (A) (A) (A) (A)
                 (A) (A) (A) (A) (A) (A)
 The electronic state is 1-A.
 Alpha  occ. eigenvalues --  -13.99481 -13.94514 -13.94513  -9.92728  -9.92726
 Alpha  occ. eigenvalues --   -0.86829  -0.79383  -0.76908  -0.57188  -0.37125
 Alpha  occ. eigenvalues --   -0.36391  -0.30733  -0.30387  -0.28516  -0.27645
 Alpha  occ. eigenvalues --   -0.22108  -0.19239
 Alpha virt. eigenvalues --    0.01700   0.02134   0.02185   0.04756   0.09497
 Alpha virt. eigenvalues --    0.10525   0.15314   0.18342   0.21055   0.21373
 Alpha virt. eigenvalues --    0.25244   0.26910   0.28638   0.32108   0.33297
 Alpha virt. eigenvalues --    0.35157   0.37555   0.41440   0.44121   0.44586
 Alpha virt. eigenvalues --    0.45402   0.49164   0.53743   0.57177   0.62740
 Alpha virt. eigenvalues --    0.64622   0.65430   0.66989   0.68811   0.77116
 Alpha virt. eigenvalues --    0.85309   0.86747   0.87379   0.90696   0.92193
 Alpha virt. eigenvalues --    1.14620   1.14800   1.17362   1.18566   1.19266
 Alpha virt. eigenvalues --    1.19869   1.22719   1.32961   1.33401   1.36961
 Alpha virt. eigenvalues --    1.38144   1.38300   1.39017   1.42742   1.48224
 Alpha virt. eigenvalues --    1.52375   1.56473   1.58079   1.61569   1.71994
 Alpha virt. eigenvalues --    1.79549   1.82381   1.83194   1.94859   2.07075
 Alpha virt. eigenvalues --    2.17512   2.22067   2.22859   2.27851   2.31142
 Alpha virt. eigenvalues --    2.42454   2.45239   2.48255   2.50076   2.59004
 Alpha virt. eigenvalues --    2.61826   2.62457   2.64458   2.65105   2.66620
 Alpha virt. eigenvalues --    2.79402   2.82646   2.84298   2.87617   2.89368
 Alpha virt. eigenvalues --    2.92537   2.92544   2.99886   3.00004   3.02346
 Alpha virt. eigenvalues --    3.10249   3.20242   3.24804   3.30814   3.31537
 Alpha virt. eigenvalues --    3.37940   3.45258   3.58533   3.85992   3.88780
 Alpha virt. eigenvalues --    3.89495   3.89693   3.91620   3.99324   4.01100
 Alpha virt. eigenvalues --    4.11090   4.36654   4.39343   4.39670   4.42340
 Alpha virt. eigenvalues --    4.44264   4.46227   4.49541   4.53674   4.56150
 Alpha virt. eigenvalues --    4.60329   4.63867   4.71588   4.74795   4.77604
 Alpha virt. eigenvalues --    4.80855   4.84988   4.92519   4.93280   5.13117
 Alpha virt. eigenvalues --    5.14339   5.16013   5.37844   5.40417   5.54347
 Alpha virt. eigenvalues --    5.59846   5.73905   5.74586   5.80910   6.03517
 Alpha virt. eigenvalues --    6.05995   6.33570   6.44784  22.94654  22.96670
 Alpha virt. eigenvalues --   31.77173  31.87382  32.63186
          Condensed to atoms (all electrons):
               1          2          3          4          5
     1  C    4.771366   1.108449   0.379482  -0.121214  -0.011162
     2  N    1.108449   6.249125  -0.120537  -0.011162   0.000103
     3  N    0.379482  -0.120537   6.776323   0.379489  -0.120521
     4  C   -0.121214  -0.011162   0.379489   4.771369   1.108409
     5  N   -0.011162   0.000103  -0.120521   1.108409   6.249145
 Mulliken charges:
               1
     1  C   -0.126921
     2  N   -0.225978
     3  N   -0.294236
     4  C   -0.126890
     5  N   -0.225975
 Sum of Mulliken charges =  -1.00000
 Mulliken charges with hydrogens summed into heavy atoms:
               1
     1  C   -0.126921
     2  N   -0.225978
     3  N   -0.294236
     4  C   -0.126890
     5  N   -0.225975
 Electronic spatial extent (au):  <R**2>=            420.3407
 Charge=             -1.0000 electrons
 Dipole moment (field-independent basis, Debye):
    X=              0.0004    Y=              1.2296    Z=              0.0000  Tot=              1.2296
 Quadrupole moment (field-independent basis, Debye-Ang):
   XX=            -59.1839   YY=            -32.0843   ZZ=            -29.8438
   XY=             -0.0000   XZ=             -0.0000   YZ=              0.0000
 Traceless Quadrupole moment (field-independent basis, Debye-Ang):
   XX=            -18.8133   YY=              8.2864   ZZ=             10.5269
   XY=             -0.0000   XZ=             -0.0000   YZ=              0.0000
 Octapole moment (field-independent basis, Debye-Ang**2):
  XXX=              0.0022  YYY=              1.0384  ZZZ=             -0.0000  XYY=              0.0003
  XXY=             16.0416  XXZ=              0.0000  XZZ=              0.0001  YZZ=              0.6099
  YYZ=              0.0000  XYZ=             -0.0000
 Hexadecapole moment (field-independent basis, Debye-Ang**3):
 XXXX=           -721.9987 YYYY=            -62.6848 ZZZZ=            -31.8089 XXXY=             -0.0012
 XXXZ=             -0.0000 YYYX=             -0.0004 YYYZ=              0.0000 ZZZX=              0.0000
 ZZZY=              0.0000 XXYY=           -105.2504 XXZZ=            -95.9556 YYZZ=            -15.6522
 XXYZ=             -0.0000 YYXZ=              0.0000 ZZXY=             -0.0002
 N-N= 1.194117094287D+02 E-N=-8.079901842484D+02  KE= 2.394055766802D+02
 No NMR shielding tensors so no spin-rotation constants.
 Leave Link  601 at Tue Mar 10 14:51:48 2020, MaxMem=  7516192768 cpu:               1.8 elap:               0.2
 (Enter /opt/g16/l9999.exe)

 Test job not archived.
 1\1\GINC-OBELIX\FOpt\RPBEPBE\def2TZVP/W06\C2N3(1-)\MTMJEA001\10-Mar-20
 20\0\\#p pbepbe/def2tzvp/w06 opt scrf(cpcm,solvent=generic,read)\\ncn2
 \\-1,1\C,1.0678049967,-0.2223119824,-0.002536434\N,-0.101541347,-0.044
 2445922,-0.0208774059\N,2.3717523055,-0.2741053965,0.0027967269\C,3.07
 10733358,-1.3701568537,0.1156690717\N,3.8125007091,-2.2871111751,0.210
 0980414\\Version=ES64L-G16RevC.01\State=1-A\HF=-240.4124484\RMSD=4.960
 e-09\RMSF=2.069e-05\Dipole=0.2416213,0.4169054,-0.0429312\Quadrupole=-
 8.9671787,1.2108638,7.7563149,8.6686522,-0.8927191,0.6812868\PG=C01 [X
 (C2N3)]\\@


 CHRISTMAS IS ON TOP OF A STEEP HILL.
 THE CLOSER YOU GET, THE STEEPER THE HILL IS.
          -- LINUS, OF PEANUTS
 Job cpu time:       0 days  0 hours 20 minutes 17.2 seconds.
 Elapsed time:       0 days  0 hours  1 minutes 44.0 seconds.
 File lengths (MBytes):  RWF=     28 Int=      0 D2E=      0 Chk=      4 Scr=      1
 Normal termination of Gaussian 16 at Tue Mar 10 14:51:48 2020.
