 Entering Gaussian System, Link 0=g16
 Input=c1c2im_ccn3.gjf
 Output=c1c2im_ccn3.log
 Initial command:
 /opt/g16/l1.exe "/scratch/mtmjea001/heat_capicities/c1c2im_ccn3/Gau-23834.inp" -scrdir="/scratch/mtmjea001/heat_capicities/c1c2im_ccn3/"
 Entering Link 1 = /opt/g16/l1.exe PID=     23835.
  
 Copyright (c) 1988-2019, Gaussian, Inc.  All Rights Reserved.
  
 This is part of the Gaussian(R) 16 program.  It is based on
 the Gaussian(R) 09 system (copyright 2009, Gaussian, Inc.),
 the Gaussian(R) 03 system (copyright 2003, Gaussian, Inc.),
 the Gaussian(R) 98 system (copyright 1998, Gaussian, Inc.),
 the Gaussian(R) 94 system (copyright 1995, Gaussian, Inc.),
 the Gaussian 92(TM) system (copyright 1992, Gaussian, Inc.),
 the Gaussian 90(TM) system (copyright 1990, Gaussian, Inc.),
 the Gaussian 88(TM) system (copyright 1988, Gaussian, Inc.),
 the Gaussian 86(TM) system (copyright 1986, Carnegie Mellon
 University), and the Gaussian 82(TM) system (copyright 1983,
 Carnegie Mellon University). Gaussian is a federally registered
 trademark of Gaussian, Inc.
  
 This software contains proprietary and confidential information,
 including trade secrets, belonging to Gaussian, Inc.
  
 This software is provided under written license and may be
 used, copied, transmitted, or stored only in accord with that
 written license.
  
 The following legend is applicable only to US Government
 contracts under FAR:
  
                    RESTRICTED RIGHTS LEGEND
  
 Use, reproduction and disclosure by the US Government is
 subject to restrictions as set forth in subparagraphs (a)
 and (c) of the Commercial Computer Software - Restricted
 Rights clause in FAR 52.227-19.
  
 Gaussian, Inc.
 340 Quinnipiac St., Bldg. 40, Wallingford CT 06492
  
  
 ---------------------------------------------------------------
 Warning -- This program may not be used in any manner that
 competes with the business of Gaussian, Inc. or will provide
 assistance to any competitor of Gaussian, Inc.  The licensee
 of this program is prohibited from giving any competitor of
 Gaussian, Inc. access to this program.  By using this program,
 the user acknowledges that Gaussian, Inc. is engaged in the
 business of creating and licensing software in the field of
 computational chemistry and represents and warrants to the
 licensee that it is not a competitor of Gaussian, Inc. and that
 it will not use this program in any manner prohibited above.
 ---------------------------------------------------------------
  

 Cite this work as:
 Gaussian 16, Revision C.01,
 M. J. Frisch, G. W. Trucks, H. B. Schlegel, G. E. Scuseria, 
 M. A. Robb, J. R. Cheeseman, G. Scalmani, V. Barone, 
 G. A. Petersson, H. Nakatsuji, X. Li, M. Caricato, A. V. Marenich, 
 J. Bloino, B. G. Janesko, R. Gomperts, B. Mennucci, H. P. Hratchian, 
 J. V. Ortiz, A. F. Izmaylov, J. L. Sonnenberg, D. Williams-Young, 
 F. Ding, F. Lipparini, F. Egidi, J. Goings, B. Peng, A. Petrone, 
 T. Henderson, D. Ranasinghe, V. G. Zakrzewski, J. Gao, N. Rega, 
 G. Zheng, W. Liang, M. Hada, M. Ehara, K. Toyota, R. Fukuda, 
 J. Hasegawa, M. Ishida, T. Nakajima, Y. Honda, O. Kitao, H. Nakai, 
 T. Vreven, K. Throssell, J. A. Montgomery, Jr., J. E. Peralta, 
 F. Ogliaro, M. J. Bearpark, J. J. Heyd, E. N. Brothers, K. N. Kudin, 
 V. N. Staroverov, T. A. Keith, R. Kobayashi, J. Normand, 
 K. Raghavachari, A. P. Rendell, J. C. Burant, S. S. Iyengar, 
 J. Tomasi, M. Cossi, J. M. Millam, M. Klene, C. Adamo, R. Cammi, 
 J. W. Ochterski, R. L. Martin, K. Morokuma, O. Farkas, 
 J. B. Foresman, and D. J. Fox, Gaussian, Inc., Wallingford CT, 2019.
 
 ******************************************
 Gaussian 16:  ES64L-G16RevC.01  3-Jul-2019
                 6-Mar-2020 
 ******************************************
 %chk=c1c2im_ccn3.chk
 %mem=56Gb
 %nprocs=12
 Will use up to   12 processors via shared memory.
 Default route: test
 ------------------------------------------------------------------
 #wb97xd/def2svp/w06 opt(tight) freq temperature=360.6 scale=0.9788
 ------------------------------------------------------------------
 1/7=10,18=20,19=15,26=3,38=1,112=360600,114=978800/1,3;
 2/9=110,12=2,17=6,18=5,40=1/2;
 3/5=43,7=101,11=2,25=1,30=1,71=1,74=-58,82=40/1,2,3;
 4//1;
 5/5=2,38=5/2;
 6/7=2,8=2,9=2,10=2,28=1/1;
 7//1,2,3,16;
 1/7=10,18=20,19=15,26=3/3(2);
 2/9=110/2;
 99//99;
 2/9=110/2;
 3/5=43,7=101,11=2,25=1,30=1,71=1,74=-58,82=40/1,2,3;
 4/5=5,16=3,69=1/1;
 5/5=2,38=5/2;
 7//1,2,3,16;
 1/7=10,18=20,19=15,26=3/3(-5);
 2/9=110/2;
 6/7=2,8=2,9=2,10=2,19=2,28=1/1;
 99/9=1/99;
 -----------
 c1c2im_ccn3
 -----------
 Symbolic Z-matrix:
 Charge =  0 Multiplicity = 1
 C                    -2.86656  -0.63012   0.56753 
 C                    -2.71736   0.76532  -0.02799 
 N                    -1.3248    1.0171   -0.38887 
 C                    -0.73226   0.63715  -1.56484 
 C                     0.58103   0.96798  -1.46822 
 N                     0.76058   1.5301   -0.23202 
 C                    -0.40136   1.54056   0.42014 
 C                     2.04177   1.94706   0.31322 
 C                     2.26066  -1.2729    0.0349 
 C                     0.95099  -1.57531   0.41884 
 C                     0.43422  -0.91875   1.5325 
 N                    -0.03013  -0.26922   2.37924 
 C                     0.0354   -2.09306  -0.50283 
 N                    -0.77534  -2.41322  -1.2681 
 N                     3.31517  -0.90501  -0.27875 
 H                    -2.54575  -1.38346  -0.15186 
 H                    -3.91168  -0.79815   0.8231 
 H                    -2.25697  -0.72023   1.46604 
 H                    -3.0194    1.53278   0.69018 
 H                    -3.31884   0.87141  -0.93495 
 H                    -1.28022   0.14031  -2.34581 
 H                     1.39969   0.82819  -2.15198 
 H                    -0.56076   1.88177   1.42804 
 H                     2.31413   2.92173  -0.09361 
 H                     2.79448   1.20289   0.03728 
 H                     1.95824   2.00266   1.39728 
 
 Add virtual bond connecting atoms H16        and N14        Dist= 4.41D+00.
 Add virtual bond connecting atoms H25        and N15        Dist= 4.15D+00.

 GradGradGradGradGradGradGradGradGradGradGradGradGradGradGradGradGradGrad
 Berny optimization.
 Initialization pass.
                           ----------------------------
                           !    Initial Parameters    !
                           ! (Angstroms and Degrees)  !
 --------------------------                            --------------------------
 ! Name  Definition              Value          Derivative Info.                !
 --------------------------------------------------------------------------------
 ! R1    R(1,2)                  1.5245         estimate D2E/DX2                !
 ! R2    R(1,16)                 1.0899         estimate D2E/DX2                !
 ! R3    R(1,17)                 1.089          estimate D2E/DX2                !
 ! R4    R(1,18)                 1.0895         estimate D2E/DX2                !
 ! R5    R(2,3)                  1.4604         estimate D2E/DX2                !
 ! R6    R(2,19)                 1.0936         estimate D2E/DX2                !
 ! R7    R(2,20)                 1.0934         estimate D2E/DX2                !
 ! R8    R(3,4)                  1.3705         estimate D2E/DX2                !
 ! R9    R(3,7)                  1.3346         estimate D2E/DX2                !
 ! R10   R(4,5)                  1.3578         estimate D2E/DX2                !
 ! R11   R(4,21)                 1.0757         estimate D2E/DX2                !
 ! R12   R(5,6)                  1.3698         estimate D2E/DX2                !
 ! R13   R(5,22)                 1.0758         estimate D2E/DX2                !
 ! R14   R(6,7)                  1.3325         estimate D2E/DX2                !
 ! R15   R(6,8)                  1.4535         estimate D2E/DX2                !
 ! R16   R(7,23)                 1.076          estimate D2E/DX2                !
 ! R17   R(8,24)                 1.0907         estimate D2E/DX2                !
 ! R18   R(8,25)                 1.0938         estimate D2E/DX2                !
 ! R19   R(8,26)                 1.0887         estimate D2E/DX2                !
 ! R20   R(9,10)                 1.3979         estimate D2E/DX2                !
 ! R21   R(9,15)                 1.16           estimate D2E/DX2                !
 ! R22   R(10,11)                1.3923         estimate D2E/DX2                !
 ! R23   R(10,13)                1.3985         estimate D2E/DX2                !
 ! R24   R(11,12)                1.1638         estimate D2E/DX2                !
 ! R25   R(13,14)                1.1599         estimate D2E/DX2                !
 ! R26   R(14,16)                2.3325         estimate D2E/DX2                !
 ! R27   R(15,25)                2.1941         estimate D2E/DX2                !
 ! A1    A(2,1,16)             110.2444         estimate D2E/DX2                !
 ! A2    A(2,1,17)             109.0773         estimate D2E/DX2                !
 ! A3    A(2,1,18)             110.0655         estimate D2E/DX2                !
 ! A4    A(16,1,17)            109.3138         estimate D2E/DX2                !
 ! A5    A(16,1,18)            108.8123         estimate D2E/DX2                !
 ! A6    A(17,1,18)            109.3096         estimate D2E/DX2                !
 ! A7    A(1,2,3)              110.3436         estimate D2E/DX2                !
 ! A8    A(1,2,19)             111.0262         estimate D2E/DX2                !
 ! A9    A(1,2,20)             111.0378         estimate D2E/DX2                !
 ! A10   A(3,2,19)             107.7364         estimate D2E/DX2                !
 ! A11   A(3,2,20)             107.6275         estimate D2E/DX2                !
 ! A12   A(19,2,20)            108.9466         estimate D2E/DX2                !
 ! A13   A(2,3,4)              125.2034         estimate D2E/DX2                !
 ! A14   A(2,3,7)              125.2806         estimate D2E/DX2                !
 ! A15   A(4,3,7)              109.2509         estimate D2E/DX2                !
 ! A16   A(3,4,5)              106.8324         estimate D2E/DX2                !
 ! A17   A(3,4,21)             122.0581         estimate D2E/DX2                !
 ! A18   A(5,4,21)             131.0675         estimate D2E/DX2                !
 ! A19   A(4,5,6)              106.9172         estimate D2E/DX2                !
 ! A20   A(4,5,22)             131.2377         estimate D2E/DX2                !
 ! A21   A(6,5,22)             121.815          estimate D2E/DX2                !
 ! A22   A(5,6,7)              109.3058         estimate D2E/DX2                !
 ! A23   A(5,6,8)              124.8755         estimate D2E/DX2                !
 ! A24   A(7,6,8)              125.6473         estimate D2E/DX2                !
 ! A25   A(3,7,6)              107.6734         estimate D2E/DX2                !
 ! A26   A(3,7,23)             126.1355         estimate D2E/DX2                !
 ! A27   A(6,7,23)             126.1672         estimate D2E/DX2                !
 ! A28   A(6,8,24)             109.666          estimate D2E/DX2                !
 ! A29   A(6,8,25)             108.4675         estimate D2E/DX2                !
 ! A30   A(6,8,26)             108.6963         estimate D2E/DX2                !
 ! A31   A(24,8,25)            109.9996         estimate D2E/DX2                !
 ! A32   A(24,8,26)            110.1773         estimate D2E/DX2                !
 ! A33   A(25,8,26)            109.7997         estimate D2E/DX2                !
 ! A34   A(9,10,11)            117.7381         estimate D2E/DX2                !
 ! A35   A(9,10,13)            120.8272         estimate D2E/DX2                !
 ! A36   A(11,10,13)           117.306          estimate D2E/DX2                !
 ! A37   A(13,14,16)            95.3322         estimate D2E/DX2                !
 ! A38   A(9,15,25)             92.8663         estimate D2E/DX2                !
 ! A39   A(1,16,14)            147.6077         estimate D2E/DX2                !
 ! A40   A(8,25,15)            148.5635         estimate D2E/DX2                !
 ! A41   L(10,9,15,5,-1)       175.1271         estimate D2E/DX2                !
 ! A42   L(10,11,12,1,-1)      176.8393         estimate D2E/DX2                !
 ! A43   L(10,13,14,1,-1)      175.4307         estimate D2E/DX2                !
 ! A44   L(10,9,15,5,-2)       176.4461         estimate D2E/DX2                !
 ! A45   L(10,11,12,1,-2)      185.9806         estimate D2E/DX2                !
 ! A46   L(10,13,14,1,-2)      176.057          estimate D2E/DX2                !
 ! D1    D(16,1,2,3)           -59.6202         estimate D2E/DX2                !
 ! D2    D(16,1,2,19)         -179.0004         estimate D2E/DX2                !
 ! D3    D(16,1,2,20)           59.6315         estimate D2E/DX2                !
 ! D4    D(17,1,2,3)          -179.6568         estimate D2E/DX2                !
 ! D5    D(17,1,2,19)           60.963          estimate D2E/DX2                !
 ! D6    D(17,1,2,20)          -60.405          estimate D2E/DX2                !
 ! D7    D(18,1,2,3)            60.4211         estimate D2E/DX2                !
 ! D8    D(18,1,2,19)          -58.9591         estimate D2E/DX2                !
 ! D9    D(18,1,2,20)          179.6728         estimate D2E/DX2                !
 ! D10   D(2,1,16,14)           72.7194         estimate D2E/DX2                !
 ! D11   D(17,1,16,14)        -167.3868         estimate D2E/DX2                !
 ! D12   D(18,1,16,14)         -48.0752         estimate D2E/DX2                !
 ! D13   D(1,2,3,4)             84.2556         estimate D2E/DX2                !
 ! D14   D(1,2,3,7)            -89.1868         estimate D2E/DX2                !
 ! D15   D(19,2,3,4)          -154.3886         estimate D2E/DX2                !
 ! D16   D(19,2,3,7)            32.1689         estimate D2E/DX2                !
 ! D17   D(20,2,3,4)           -37.0458         estimate D2E/DX2                !
 ! D18   D(20,2,3,7)           149.5117         estimate D2E/DX2                !
 ! D19   D(2,3,4,5)           -175.5901         estimate D2E/DX2                !
 ! D20   D(2,3,4,21)             2.2954         estimate D2E/DX2                !
 ! D21   D(7,3,4,5)             -1.2572         estimate D2E/DX2                !
 ! D22   D(7,3,4,21)           176.6284         estimate D2E/DX2                !
 ! D23   D(2,3,7,6)            175.8075         estimate D2E/DX2                !
 ! D24   D(2,3,7,23)            -2.5007         estimate D2E/DX2                !
 ! D25   D(4,3,7,6)              1.48           estimate D2E/DX2                !
 ! D26   D(4,3,7,23)          -176.8282         estimate D2E/DX2                !
 ! D27   D(3,4,5,6)              0.5431         estimate D2E/DX2                !
 ! D28   D(3,4,5,22)           178.524          estimate D2E/DX2                !
 ! D29   D(21,4,5,6)          -177.0799         estimate D2E/DX2                !
 ! D30   D(21,4,5,22)            0.901          estimate D2E/DX2                !
 ! D31   D(4,5,6,7)              0.3536         estimate D2E/DX2                !
 ! D32   D(4,5,6,8)            175.8158         estimate D2E/DX2                !
 ! D33   D(22,5,6,7)          -177.8598         estimate D2E/DX2                !
 ! D34   D(22,5,6,8)            -2.3976         estimate D2E/DX2                !
 ! D35   D(5,6,7,3)             -1.1332         estimate D2E/DX2                !
 ! D36   D(5,6,7,23)           177.1743         estimate D2E/DX2                !
 ! D37   D(8,6,7,3)           -176.5519         estimate D2E/DX2                !
 ! D38   D(8,6,7,23)             1.7556         estimate D2E/DX2                !
 ! D39   D(5,6,8,24)            80.3419         estimate D2E/DX2                !
 ! D40   D(5,6,8,25)           -39.8086         estimate D2E/DX2                !
 ! D41   D(5,6,8,26)          -159.1514         estimate D2E/DX2                !
 ! D42   D(7,6,8,24)          -104.9302         estimate D2E/DX2                !
 ! D43   D(7,6,8,25)           134.9194         estimate D2E/DX2                !
 ! D44   D(7,6,8,26)            15.5765         estimate D2E/DX2                !
 ! D45   D(6,8,25,15)          -37.8317         estimate D2E/DX2                !
 ! D46   D(24,8,25,15)        -157.774          estimate D2E/DX2                !
 ! D47   D(26,8,25,15)          80.816          estimate D2E/DX2                !
 ! D48   D(9,10,14,16)        -147.7194         estimate D2E/DX2                !
 ! D49   D(11,10,14,16)          6.3006         estimate D2E/DX2                !
 ! D50   D(11,10,15,25)        -43.3766         estimate D2E/DX2                !
 ! D51   D(13,10,15,25)        110.5254         estimate D2E/DX2                !
 ! D52   D(13,14,16,1)          20.6961         estimate D2E/DX2                !
 ! D53   D(9,15,25,8)           -1.7943         estimate D2E/DX2                !
 --------------------------------------------------------------------------------
 Trust Radius=3.00D-01 FncErr=1.00D-07 GrdErr=1.00D-06 EigMax=2.50D+02 EigMin=1.00D-04
 Number of steps in this run=    136 maximum allowed number of steps=    156.
 GradGradGradGradGradGradGradGradGradGradGradGradGradGradGradGradGradGrad

                          Input orientation:                          
 ---------------------------------------------------------------------
 Center     Atomic      Atomic             Coordinates (Angstroms)
 Number     Number       Type             X           Y           Z
 ---------------------------------------------------------------------
      1          6           0       -2.866560   -0.630120    0.567530
      2          6           0       -2.717360    0.765320   -0.027990
      3          7           0       -1.324800    1.017100   -0.388870
      4          6           0       -0.732260    0.637150   -1.564840
      5          6           0        0.581030    0.967980   -1.468220
      6          7           0        0.760580    1.530100   -0.232020
      7          6           0       -0.401360    1.540560    0.420140
      8          6           0        2.041770    1.947060    0.313220
      9          6           0        2.260660   -1.272900    0.034900
     10          6           0        0.950990   -1.575310    0.418840
     11          6           0        0.434220   -0.918750    1.532500
     12          7           0       -0.030130   -0.269220    2.379240
     13          6           0        0.035400   -2.093060   -0.502830
     14          7           0       -0.775340   -2.413220   -1.268100
     15          7           0        3.315170   -0.905010   -0.278750
     16          1           0       -2.545750   -1.383460   -0.151860
     17          1           0       -3.911680   -0.798150    0.823100
     18          1           0       -2.256970   -0.720230    1.466040
     19          1           0       -3.019400    1.532780    0.690180
     20          1           0       -3.318840    0.871410   -0.934950
     21          1           0       -1.280220    0.140310   -2.345810
     22          1           0        1.399690    0.828190   -2.151980
     23          1           0       -0.560760    1.881770    1.428040
     24          1           0        2.314130    2.921730   -0.093610
     25          1           0        2.794480    1.202890    0.037280
     26          1           0        1.958240    2.002660    1.397280
 ---------------------------------------------------------------------
                    Distance matrix (angstroms):
                    1          2          3          4          5
     1  C    0.000000
     2  C    1.524519   0.000000
     3  N    2.450522   1.460428   0.000000
     4  C    3.272340   2.513754   1.370537   0.000000
     5  C    4.310925   3.604818   2.190798   1.357761   0.000000
     6  N    4.296740   3.566873   2.153272   2.191424   1.369820
     7  C    3.287976   2.483077   1.334634   2.205854   2.204278
     8  C    5.549616   4.915511   3.562520   3.596973   2.503175
     9  C    5.194733   5.379496   4.275419   3.894230   3.178375
    10  C    3.935630   4.374357   3.542909   3.415157   3.188446
    11  C    3.451032   3.899189   3.245509   3.657187   3.547622
    12  N    3.384949   3.753163   3.315603   4.107342   4.087435
    13  C    3.421584   3.996686   3.396502   3.028401   3.255711
    14  N    3.304873   3.925867   3.583580   3.065072   3.648603
    15  N    6.245442   6.264527   5.023540   4.518183   3.521144
    16  H    1.089937   2.159178   2.703624   3.060739   4.127811
    17  H    1.088956   2.143640   3.384664   4.227417   5.343576
    18  H    1.089514   2.156605   2.707018   3.654238   4.417486
    19  H    2.171760   1.093614   2.074113   3.334408   4.235656
    20  H    2.171772   1.093439   2.072589   2.672459   3.937345
    21  H    3.405523   2.797910   2.144846   1.075651   2.217984
    22  H    5.265291   4.633075   3.250706   2.219559   1.075766
    23  H    3.516644   2.831503   2.152341   3.245893   3.244537
    24  H    6.316035   5.474514   4.117840   4.082195   2.951326
    25  H    5.973982   5.529567   4.145430   3.914683   2.687206
    26  H    5.558661   5.042186   3.865231   4.228187   3.343405
                    6          7          8          9         10
     6  N    0.000000
     7  C    1.332489   0.000000
     8  C    1.453475   2.479024   0.000000
     9  C    3.190344   3.892341   3.239370   0.000000
    10  C    3.178592   3.396689   3.688909   1.397890   0.000000
    11  C    3.035936   2.825552   3.504815   2.388328   1.392250
    12  N    3.268249   2.692803   3.670573   3.427976   2.551791
    13  C    3.704931   3.774364   4.584106   2.431789   1.398516
    14  N    4.356866   4.315367   5.426668   3.495059   2.555010
    15  N    3.529571   4.503538   3.179037   1.160048   2.554463
    16  H    4.407616   3.670897   5.688058   4.811308   3.548196
    17  H    5.325790   4.237250   6.575692   6.240547   4.940948
    18  H    4.129528   3.106182   5.188699   4.771015   3.481206
    19  H    3.890849   2.631941   5.092069   6.015003   5.049539
    20  H    4.191617   3.285684   5.608127   6.055534   5.103982
    21  H    3.250306   3.222355   4.622813   4.494750   3.945243
    22  H    2.141818   3.219791   2.782328   3.152506   3.547853
    23  H    2.150677   1.075962   2.832004   4.455692   3.905800
    24  H    2.090289   3.089572   1.090721   4.196939   4.726957
    25  H    2.077580   3.236355   1.093848   2.532687   3.355956
    26  H    2.076613   2.595390   1.088694   3.560454   3.843666
                   11         12         13         14         15
    11  C    0.000000
    12  N    1.163821   0.000000
    13  C    2.383407   3.411307   0.000000
    14  N    3.397033   4.295947   1.159931   0.000000
    15  N    3.403041   4.319742   3.495507   4.470546   0.000000
    16  H    3.454453   3.738495   2.699824   2.332541   5.881785
    17  H    4.405070   4.215183   4.360542   4.101000   7.311146
    18  H    2.699320   2.448706   3.319047   3.540758   5.841847
    19  H    4.318216   3.877610   4.888946   4.943843   6.856269
    20  H    4.835126   4.806299   4.497303   4.167634   6.899011
    21  H    4.370606   4.904746   3.180467   2.817247   5.146168
    22  H    4.190385   4.876541   3.621420   4.002342   3.190930
    23  H    2.973854   2.411039   4.459029   5.075643   5.069725
    24  H    4.574667   4.668266   5.523422   6.275822   3.959835
    25  H    3.508257   3.953518   4.332150   5.246321   2.194137
    26  H    3.297811   3.174791   4.907408   5.837526   3.620066
                   16         17         18         19         20
    16  H    0.000000
    17  H    1.777329   0.000000
    18  H    1.772250   1.776938   0.000000
    19  H    3.072105   2.499413   2.501862   0.000000
    20  H    2.509051   2.495923   3.070120   1.779922   0.000000
    21  H    2.955818   4.224604   4.027998   3.765761   2.584764
    22  H    4.945541   6.301328   5.372042   5.301196   4.873146
    23  H    4.134972   4.333196   3.106280   2.590587   3.769822
    24  H    6.492803   7.310169   6.049077   5.566871   6.053265
    25  H    5.936585   7.042319   5.590786   5.859719   6.199015
    26  H    5.843934   6.529179   5.018651   5.049523   5.879336
                   21         22         23         24         25
    21  H    0.000000
    22  H    2.773566   0.000000
    23  H    4.218086   4.215440   0.000000
    24  H    5.072283   3.075061   3.414957   0.000000
    25  H    4.838530   2.622727   3.694960   1.789491   0.000000
    26  H    5.288355   3.780027   2.522087   1.787205   1.785645
                   26
    26  H    0.000000
 Stoichiometry    C10H11N5
 Framework group  C1[X(C10H11N5)]
 Deg. of freedom    72
 Full point group                 C1      NOp   1
 Largest Abelian subgroup         C1      NOp   1
 Largest concise Abelian subgroup C1      NOp   1
                         Standard orientation:                         
 ---------------------------------------------------------------------
 Center     Atomic      Atomic             Coordinates (Angstroms)
 Number     Number       Type             X           Y           Z
 ---------------------------------------------------------------------
      1          6           0        2.866579    0.707295    0.579610
      2          6           0        2.768798   -0.694131   -0.012505
      3          7           0        1.387582   -0.995123   -0.379243
      4          6           0        0.787910   -0.639244   -1.559122
      5          6           0       -0.513556   -1.015215   -1.467759
      6          7           0       -0.679467   -1.579800   -0.230777
      7          6           0        0.478964   -1.548091    0.426914
      8          6           0       -1.948035   -2.039490    0.309604
      9          6           0       -2.277226    1.170141    0.020782
     10          6           0       -0.980718    1.518917    0.410038
     11          6           0       -0.446865    0.883793    1.528062
     12          7           0        0.035649    0.253133    2.378901
     13          6           0       -0.079202    2.065594   -0.508798
     14          7           0        0.723630    2.411593   -1.271153
     15          7           0       -3.316798    0.764982   -0.296783
     16          1           0        2.523297    1.447041   -0.143505
     17          1           0        3.903986    0.912229    0.839639
     18          1           0        2.249885    0.778672    1.474950
     19          1           0        3.093818   -1.448643    0.709344
     20          1           0        3.377983   -0.781784   -0.916286
     21          1           0        1.322066   -0.125842   -2.338942
     22          1           0       -1.333255   -0.905839   -2.155802
     23          1           0        0.645232   -1.880762    1.436558
     24          1           0       -2.184421   -3.024155   -0.095645
     25          1           0       -2.724780   -1.322678    0.027910
     26          1           0       -1.867875   -2.089147    1.394207
 ---------------------------------------------------------------------
 Rotational constants (GHZ):           0.8475493           0.6246911           0.5234222
 Standard basis: def2SVP (5D, 7F)
 There are   280 symmetry adapted cartesian basis functions of A   symmetry.
 There are   265 symmetry adapted basis functions of A   symmetry.
   265 basis functions,   452 primitive gaussians,   280 cartesian basis functions
    53 alpha electrons       53 beta electrons
       nuclear repulsion energy       975.6114249745 Hartrees.
 NAtoms=   26 NActive=   26 NUniq=   26 SFac= 1.00D+00 NAtFMM=   60 NAOKFM=F Big=F
 Integral buffers will be    131072 words long.
 Raffenetti 2 integral format.
 Two-electron integral symmetry is turned on.
 Nuclear repulsion after empirical dispersion term =      975.5867033522 Hartrees.
 Standard density basis: W06 (5D, 7F)
   856 Density fitting functions
 There are   856 symmetry adapted density basis functions of A   symmetry.
 One-electron integrals computed using PRISM.
   1 Symmetry operations used in ECPInt.
 ECPInt:  NShTT=    7626 NPrTT=   27958 LenC2=    7469 LenP2D=   20568.
 LDataN:  DoStor=T MaxTD1= 4 Len=   56
 NBasis=   265 RedAO= T EigKep=  6.13D-04  NBF=   265
 NBsUse=   265 1.00D-06 EigRej= -1.00D+00 NBFU=   265
 ExpMin= 1.22D-01 ExpMax= 1.71D+03 ExpMxC= 2.58D+02 IAcc=3 IRadAn=         5 AccDes= 0.00D+00
 Harris functional with IExCor= 4639 and IRadAn=       5 diagonalized for initial guess.
 HarFok:  IExCor= 4639 AccDes= 0.00D+00 IRadAn=         5 IDoV= 1 UseB2=F ITyADJ=14
 ICtDFT=  3500011 ScaDFX=  1.000000  1.000000  1.000000  1.000000
 FoFCou: FMM=F IPFlag=           0 FMFlag=      100000 FMFlg1=           0
         NFxFlg=           0 DoJE=T BraDBF=F KetDBF=T FulRan=T
         wScrn=  0.000000 ICntrl=       500 IOpCl=  0 I1Cent=   200000004 NGrid=           0
         NMat0=    1 NMatS0=      1 NMatT0=    0 NMatD0=    1 NMtDS0=    0 NMtDT0=    0
 Petite list used in FoFCou.
 Requested convergence on RMS density matrix=1.00D-08 within 128 cycles.
 Requested convergence on MAX density matrix=1.00D-06.
 Requested convergence on             energy=1.00D-06.
 No special actions if energy rises.
 Integral accuracy reduced to 1.0D-05 until final iterations.
 Initial convergence to 1.0D-05 achieved.  Increase integral accuracy.
 SCF Done:  E(RwB97XD) =  -660.656729374     A.U. after   16 cycles
            NFock= 16  Conv=0.46D-08     -V/T= 2.0099

 **********************************************************************

            Population analysis using the SCF Density.

 **********************************************************************

 Orbital symmetries:
       Occupied  (A) (A) (A) (A) (A) (A) (A) (A) (A) (A) (A) (A)
                 (A) (A) (A) (A) (A) (A) (A) (A) (A) (A) (A) (A)
                 (A) (A) (A) (A) (A) (A) (A) (A) (A) (A) (A) (A)
                 (A) (A) (A) (A) (A) (A) (A) (A) (A) (A) (A) (A)
                 (A) (A) (A) (A) (A)
       Virtual   (A) (A) (A) (A) (A) (A) (A) (A) (A) (A) (A) (A)
                 (A) (A) (A) (A) (A) (A) (A) (A) (A) (A) (A) (A)
                 (A) (A) (A) (A) (A) (A) (A) (A) (A) (A) (A) (A)
                 (A) (A) (A) (A) (A) (A) (A) (A) (A) (A) (A) (A)
                 (A) (A) (A) (A) (A) (A) (A) (A) (A) (A) (A) (A)
                 (A) (A) (A) (A) (A) (A) (A) (A) (A) (A) (A) (A)
                 (A) (A) (A) (A) (A) (A) (A) (A) (A) (A) (A) (A)
                 (A) (A) (A) (A) (A) (A) (A) (A) (A) (A) (A) (A)
                 (A) (A) (A) (A) (A) (A) (A) (A) (A) (A) (A) (A)
                 (A) (A) (A) (A) (A) (A) (A) (A) (A) (A) (A) (A)
                 (A) (A) (A) (A) (A) (A) (A) (A) (A) (A) (A) (A)
                 (A) (A) (A) (A) (A) (A) (A) (A) (A) (A) (A) (A)
                 (A) (A) (A) (A) (A) (A) (A) (A) (A) (A) (A) (A)
                 (A) (A) (A) (A) (A) (A) (A) (A) (A) (A) (A) (A)
                 (A) (A) (A) (A) (A) (A) (A) (A) (A) (A) (A) (A)
                 (A) (A) (A) (A) (A) (A) (A) (A) (A) (A) (A) (A)
                 (A) (A) (A) (A) (A) (A) (A) (A) (A) (A) (A) (A)
                 (A) (A) (A) (A) (A) (A) (A) (A)
 The electronic state is 1-A.
 Alpha  occ. eigenvalues --  -14.57062 -14.56817 -14.42603 -14.41950 -14.41815
 Alpha  occ. eigenvalues --  -10.43134 -10.38224 -10.37925 -10.37793 -10.36876
 Alpha  occ. eigenvalues --  -10.33672 -10.32867 -10.32689 -10.32447 -10.30332
 Alpha  occ. eigenvalues --   -1.20876  -1.08682  -0.99840  -0.97923  -0.97452
 Alpha  occ. eigenvalues --   -0.93544  -0.90339  -0.87832  -0.85236  -0.78267
 Alpha  occ. eigenvalues --   -0.75808  -0.73245  -0.67784  -0.66141  -0.65838
 Alpha  occ. eigenvalues --   -0.63323  -0.60334  -0.60058  -0.58751  -0.57504
 Alpha  occ. eigenvalues --   -0.56014  -0.54984  -0.52368  -0.50562  -0.49149
 Alpha  occ. eigenvalues --   -0.48191  -0.46933  -0.44777  -0.43817  -0.43658
 Alpha  occ. eigenvalues --   -0.43042  -0.42254  -0.41233  -0.41117  -0.40454
 Alpha  occ. eigenvalues --   -0.39545  -0.36129  -0.27336
 Alpha virt. eigenvalues --    0.02643   0.05984   0.08275   0.09978   0.11753
 Alpha virt. eigenvalues --    0.12427   0.12936   0.13281   0.14705   0.15008
 Alpha virt. eigenvalues --    0.17120   0.17883   0.19045   0.19205   0.19902
 Alpha virt. eigenvalues --    0.20559   0.20836   0.22163   0.22442   0.23510
 Alpha virt. eigenvalues --    0.26070   0.26802   0.28310   0.28620   0.29116
 Alpha virt. eigenvalues --    0.31341   0.32501   0.34194   0.35189   0.38736
 Alpha virt. eigenvalues --    0.42358   0.42878   0.44007   0.46902   0.47362
 Alpha virt. eigenvalues --    0.49728   0.50241   0.51150   0.51777   0.54401
 Alpha virt. eigenvalues --    0.54652   0.56461   0.56781   0.56867   0.60125
 Alpha virt. eigenvalues --    0.60368   0.61346   0.64656   0.65366   0.65939
 Alpha virt. eigenvalues --    0.68276   0.68582   0.69444   0.70149   0.70653
 Alpha virt. eigenvalues --    0.71666   0.72226   0.72415   0.73514   0.74657
 Alpha virt. eigenvalues --    0.75194   0.76392   0.76833   0.77265   0.78173
 Alpha virt. eigenvalues --    0.78188   0.79238   0.80119   0.81124   0.83102
 Alpha virt. eigenvalues --    0.83857   0.85024   0.85716   0.86549   0.86991
 Alpha virt. eigenvalues --    0.87988   0.89346   0.91232   0.94853   0.95724
 Alpha virt. eigenvalues --    0.96753   0.97817   0.99879   1.02043   1.02188
 Alpha virt. eigenvalues --    1.05114   1.06045   1.07708   1.08063   1.10806
 Alpha virt. eigenvalues --    1.11287   1.14443   1.15819   1.17258   1.17886
 Alpha virt. eigenvalues --    1.20304   1.20976   1.22881   1.26301   1.28038
 Alpha virt. eigenvalues --    1.28280   1.30595   1.32948   1.36090   1.36952
 Alpha virt. eigenvalues --    1.38403   1.40686   1.43419   1.44279   1.47404
 Alpha virt. eigenvalues --    1.48086   1.48897   1.53586   1.56734   1.58965
 Alpha virt. eigenvalues --    1.61401   1.65540   1.67043   1.68218   1.71155
 Alpha virt. eigenvalues --    1.74015   1.75718   1.77355   1.79149   1.79676
 Alpha virt. eigenvalues --    1.80363   1.81535   1.82028   1.83064   1.84308
 Alpha virt. eigenvalues --    1.85376   1.86062   1.86719   1.87611   1.88897
 Alpha virt. eigenvalues --    1.89311   1.90210   1.90768   1.91137   1.92596
 Alpha virt. eigenvalues --    1.93426   1.94238   1.94922   1.96078   1.99401
 Alpha virt. eigenvalues --    2.00739   2.03989   2.05028   2.06606   2.08344
 Alpha virt. eigenvalues --    2.10716   2.13755   2.14142   2.18525   2.22754
 Alpha virt. eigenvalues --    2.25574   2.26289   2.30465   2.31312   2.33515
 Alpha virt. eigenvalues --    2.33707   2.35947   2.36739   2.37017   2.38304
 Alpha virt. eigenvalues --    2.39040   2.39483   2.41162   2.41607   2.42781
 Alpha virt. eigenvalues --    2.43546   2.44726   2.47497   2.48144   2.49263
 Alpha virt. eigenvalues --    2.51412   2.56655   2.58042   2.61867   2.63598
 Alpha virt. eigenvalues --    2.69548   2.75454   2.76915   2.81476   2.82776
 Alpha virt. eigenvalues --    2.85531   2.88603   2.90758   2.92316   2.95965
 Alpha virt. eigenvalues --    2.96710   2.97817   2.98636   2.99187   3.00276
 Alpha virt. eigenvalues --    3.00457   3.02501   3.04508   3.07097   3.09838
 Alpha virt. eigenvalues --    3.10191   3.19796   3.21126   3.22003   3.34907
 Alpha virt. eigenvalues --    3.37130   3.41337   3.55302   3.57023   3.58439
 Alpha virt. eigenvalues --    3.68858   3.70050
          Condensed to atoms (all electrons):
               1          2          3          4          5          6
     1  C    4.608789   0.431076  -0.057022  -0.004679   0.000062  -0.000061
     2  C    0.431076   4.579326   0.259196  -0.025579   0.004343   0.003235
     3  N   -0.057022   0.259196   6.445248   0.378179  -0.043600  -0.071613
     4  C   -0.004679  -0.025579   0.378179   4.805785   0.502754  -0.043399
     5  C    0.000062   0.004343  -0.043600   0.502754   4.825829   0.379263
     6  N   -0.000061   0.003235  -0.071613  -0.043399   0.379263   6.387767
     7  C   -0.006208  -0.027540   0.432295  -0.107598  -0.097626   0.433061
     8  C    0.000003  -0.000073   0.003800   0.005890  -0.032327   0.283344
     9  C   -0.000099   0.000037  -0.000666  -0.001417   0.002987  -0.003637
    10  C   -0.004688   0.000313   0.005256  -0.014690  -0.007086   0.011332
    11  C    0.001223  -0.000822  -0.006983  -0.000029  -0.000439  -0.014265
    12  N   -0.008586   0.000583  -0.007894   0.000713   0.000676  -0.008895
    13  C    0.002069  -0.001084  -0.002133   0.007998  -0.009029  -0.001819
    14  N   -0.013618  -0.000137  -0.002103   0.005367  -0.004167  -0.000042
    15  N   -0.000000   0.000000  -0.000012   0.000091  -0.000764  -0.001672
    16  H    0.389449  -0.014766  -0.003751   0.003115  -0.000846   0.000089
    17  H    0.387384  -0.022857   0.005249   0.000059   0.000008   0.000000
    18  H    0.391570  -0.014980  -0.003191  -0.001523   0.000296  -0.000238
    19  H   -0.020831   0.390232  -0.018788   0.005844  -0.000684   0.000596
    20  H   -0.021637   0.392300  -0.018743  -0.008483   0.001730  -0.000308
    21  H   -0.001726   0.000363  -0.031190   0.432608  -0.037772   0.003441
    22  H    0.000014  -0.000099   0.003365  -0.038435   0.434859  -0.031544
    23  H   -0.001166   0.001227  -0.021493   0.002515   0.002840  -0.020628
    24  H    0.000001   0.000006  -0.000090   0.000370  -0.003387  -0.022067
    25  H   -0.000002   0.000005  -0.000135   0.000848  -0.004894  -0.017677
    26  H   -0.000003  -0.000000   0.000457  -0.000520   0.004983  -0.017494
               7          8          9         10         11         12
     1  C   -0.006208   0.000003  -0.000099  -0.004688   0.001223  -0.008586
     2  C   -0.027540  -0.000073   0.000037   0.000313  -0.000822   0.000583
     3  N    0.432295   0.003800  -0.000666   0.005256  -0.006983  -0.007894
     4  C   -0.107598   0.005890  -0.001417  -0.014690  -0.000029   0.000713
     5  C   -0.097626  -0.032327   0.002987  -0.007086  -0.000439   0.000676
     6  N    0.433061   0.283344  -0.003637   0.011332  -0.014265  -0.008895
     7  C    4.732157  -0.032125   0.001069  -0.022990   0.019931   0.014046
     8  C   -0.032125   4.555542  -0.002637  -0.001002   0.001403  -0.000863
     9  C    0.001069  -0.002637   4.877576   0.272232   0.023294   0.006688
    10  C   -0.022990  -0.001002   0.272232   5.823086   0.350288  -0.078558
    11  C    0.019931   0.001403   0.023294   0.350288   4.855142   0.787249
    12  N    0.014046  -0.000863   0.006688  -0.078558   0.787249   6.340181
    13  C    0.001746  -0.000084   0.035604   0.286998   0.029029   0.005451
    14  N    0.000592  -0.000009   0.005525  -0.073703   0.003443   0.000263
    15  N    0.000293  -0.023855   0.851574  -0.082617   0.003953   0.000259
    16  H   -0.001050  -0.000002   0.000024  -0.000072   0.000370  -0.000173
    17  H    0.000176  -0.000000   0.000001  -0.000005   0.000041   0.000193
    18  H    0.001490   0.000005   0.000009  -0.001047   0.002721   0.020231
    19  H   -0.006418  -0.000008  -0.000003   0.000004   0.000098  -0.000248
    20  H    0.004928   0.000008  -0.000001  -0.000043  -0.000007  -0.000013
    21  H    0.004846  -0.000097   0.000126  -0.000481   0.000043   0.000012
    22  H    0.005796  -0.003470   0.003108  -0.004866   0.000199   0.000029
    23  H    0.412464  -0.002212   0.000108   0.000134  -0.007061   0.019114
    24  H   -0.001302   0.401047   0.000283  -0.000002   0.000045   0.000031
    25  H    0.002625   0.382273  -0.001386  -0.006534   0.000217   0.000385
    26  H   -0.005512   0.398640   0.000323  -0.001516   0.002269   0.003628
              13         14         15         16         17         18
     1  C    0.002069  -0.013618  -0.000000   0.389449   0.387384   0.391570
     2  C   -0.001084  -0.000137   0.000000  -0.014766  -0.022857  -0.014980
     3  N   -0.002133  -0.002103  -0.000012  -0.003751   0.005249  -0.003191
     4  C    0.007998   0.005367   0.000091   0.003115   0.000059  -0.001523
     5  C   -0.009029  -0.004167  -0.000764  -0.000846   0.000008   0.000296
     6  N   -0.001819  -0.000042  -0.001672   0.000089   0.000000  -0.000238
     7  C    0.001746   0.000592   0.000293  -0.001050   0.000176   0.001490
     8  C   -0.000084  -0.000009  -0.023855  -0.000002  -0.000000   0.000005
     9  C    0.035604   0.005525   0.851574   0.000024   0.000001   0.000009
    10  C    0.286998  -0.073703  -0.082617  -0.000072  -0.000005  -0.001047
    11  C    0.029029   0.003443   0.003953   0.000370   0.000041   0.002721
    12  N    0.005451   0.000263   0.000259  -0.000173   0.000193   0.020231
    13  C    4.862353   0.835681   0.005072  -0.000090   0.000096   0.000677
    14  N    0.835681   6.250695   0.000135   0.029219   0.000303  -0.000509
    15  N    0.005072   0.000135   6.228995   0.000000   0.000000   0.000000
    16  H   -0.000090   0.029219   0.000000   0.554383  -0.011771  -0.016886
    17  H    0.000096   0.000303   0.000000  -0.011771   0.611190  -0.012989
    18  H    0.000677  -0.000509   0.000000  -0.016886  -0.012989   0.564835
    19  H   -0.000032  -0.000021  -0.000000   0.005845  -0.004213  -0.008670
    20  H    0.000081  -0.000089   0.000000  -0.008547  -0.003931   0.006072
    21  H   -0.000832   0.008626   0.000012   0.001735  -0.000044  -0.000013
    22  H    0.000993   0.000341   0.003709   0.000005  -0.000000  -0.000000
    23  H    0.000078   0.000008   0.000015  -0.000012  -0.000026   0.001247
    24  H   -0.000013   0.000000   0.000412   0.000000  -0.000000  -0.000001
    25  H    0.000465   0.000019   0.052212   0.000001   0.000000   0.000001
    26  H    0.000058   0.000001   0.000342   0.000001   0.000000   0.000002
              19         20         21         22         23         24
     1  C   -0.020831  -0.021637  -0.001726   0.000014  -0.001166   0.000001
     2  C    0.390232   0.392300   0.000363  -0.000099   0.001227   0.000006
     3  N   -0.018788  -0.018743  -0.031190   0.003365  -0.021493  -0.000090
     4  C    0.005844  -0.008483   0.432608  -0.038435   0.002515   0.000370
     5  C   -0.000684   0.001730  -0.037772   0.434859   0.002840  -0.003387
     6  N    0.000596  -0.000308   0.003441  -0.031544  -0.020628  -0.022067
     7  C   -0.006418   0.004928   0.004846   0.005796   0.412464  -0.001302
     8  C   -0.000008   0.000008  -0.000097  -0.003470  -0.002212   0.401047
     9  C   -0.000003  -0.000001   0.000126   0.003108   0.000108   0.000283
    10  C    0.000004  -0.000043  -0.000481  -0.004866   0.000134  -0.000002
    11  C    0.000098  -0.000007   0.000043   0.000199  -0.007061   0.000045
    12  N   -0.000248  -0.000013   0.000012   0.000029   0.019114   0.000031
    13  C   -0.000032   0.000081  -0.000832   0.000993   0.000078  -0.000013
    14  N   -0.000021  -0.000089   0.008626   0.000341   0.000008   0.000000
    15  N   -0.000000   0.000000   0.000012   0.003709   0.000015   0.000412
    16  H    0.005845  -0.008547   0.001735   0.000005  -0.000012   0.000000
    17  H   -0.004213  -0.003931  -0.000044  -0.000000  -0.000026  -0.000000
    18  H   -0.008670   0.006072  -0.000013  -0.000000   0.001247  -0.000001
    19  H    0.621616  -0.025474   0.000112   0.000007   0.000544  -0.000002
    20  H   -0.025474   0.616536   0.000749   0.000001   0.000046  -0.000001
    21  H    0.000112   0.000749   0.540756  -0.002883  -0.000146   0.000008
    22  H    0.000007   0.000001  -0.002883   0.544938  -0.000125   0.000137
    23  H    0.000544   0.000046  -0.000146  -0.000125   0.503851   0.000047
    24  H   -0.000002  -0.000001   0.000008   0.000137   0.000047   0.582395
    25  H    0.000000  -0.000000  -0.000001   0.002000   0.000035  -0.013574
    26  H    0.000005   0.000001   0.000008   0.000155   0.001866  -0.018265
              25         26
     1  C   -0.000002  -0.000003
     2  C    0.000005  -0.000000
     3  N   -0.000135   0.000457
     4  C    0.000848  -0.000520
     5  C   -0.004894   0.004983
     6  N   -0.017677  -0.017494
     7  C    0.002625  -0.005512
     8  C    0.382273   0.398640
     9  C   -0.001386   0.000323
    10  C   -0.006534  -0.001516
    11  C    0.000217   0.002269
    12  N    0.000385   0.003628
    13  C    0.000465   0.000058
    14  N    0.000019   0.000001
    15  N    0.052212   0.000342
    16  H    0.000001   0.000001
    17  H    0.000000   0.000000
    18  H    0.000001   0.000002
    19  H    0.000000   0.000005
    20  H   -0.000000   0.000001
    21  H   -0.000001   0.000008
    22  H    0.002000   0.000155
    23  H    0.000035   0.001866
    24  H   -0.013574  -0.018265
    25  H    0.512795  -0.008254
    26  H   -0.008254   0.560857
 Mulliken charges:
               1
     1  C   -0.071311
     2  C    0.045692
     3  N   -0.243638
     4  C    0.094220
     5  C    0.081992
     6  N   -0.246769
     7  C    0.240855
     8  C    0.066810
     9  C   -0.070721
    10  C   -0.449743
    11  C   -0.051353
    12  N   -0.094504
    13  C   -0.059331
    14  N   -0.045821
    15  N   -0.038155
    16  H    0.073733
    17  H    0.051135
    18  H    0.070890
    19  H    0.060490
    20  H    0.064824
    21  H    0.081740
    22  H    0.081768
    23  H    0.106731
    24  H    0.073922
    25  H    0.098576
    26  H    0.077970
 Sum of Mulliken charges =  -0.00000
 Mulliken charges with hydrogens summed into heavy atoms:
               1
     1  C    0.124446
     2  C    0.171006
     3  N   -0.243638
     4  C    0.175959
     5  C    0.163761
     6  N   -0.246769
     7  C    0.347586
     8  C    0.317279
     9  C   -0.070721
    10  C   -0.449743
    11  C   -0.051353
    12  N   -0.094504
    13  C   -0.059331
    14  N   -0.045821
    15  N   -0.038155
 Electronic spatial extent (au):  <R**2>=           2518.0350
 Charge=              0.0000 electrons
 Dipole moment (field-independent basis, Debye):
    X=              4.3382    Y=             -8.1181    Z=             -1.4325  Tot=              9.3153
 Quadrupole moment (field-independent basis, Debye-Ang):
   XX=            -90.4567   YY=            -89.1512   ZZ=            -93.0290
   XY=              2.7013   XZ=             -0.2776   YZ=              2.3632
 Traceless Quadrupole moment (field-independent basis, Debye-Ang):
   XX=              0.4223   YY=              1.7278   ZZ=             -2.1501
   XY=              2.7013   XZ=             -0.2776   YZ=              2.3632
 Octapole moment (field-independent basis, Debye-Ang**2):
  XXX=             94.9255  YYY=            -51.1678  ZZZ=            -34.7847  XYY=            -12.6463
  XXY=            -34.6284  XXZ=              6.8662  XZZ=             -0.8516  YZZ=            -19.0581
  YYZ=             21.4805  XYZ=              2.6942
 Hexadecapole moment (field-independent basis, Debye-Ang**3):
 XXXX=          -1815.5771 YYYY=          -1113.8687 ZZZZ=           -721.2998 XXXY=             64.9979
 XXXZ=            -25.6701 YYYX=              9.1401 YYYZ=             15.2706 ZZZX=             -2.2179
 ZZZY=             -0.8956 XXYY=           -445.8985 XXZZ=           -373.5084 YYZZ=           -307.0239
 XXYZ=              7.2286 YYXZ=             21.8798 ZZXY=             -1.5145
 N-N= 9.755867033522D+02 E-N=-3.483171053228D+03  KE= 6.542103125142D+02
   1 Symmetry operations used in ECPInt.
 ECPInt:  NShTT=    7626 NPrTT=   27958 LenC2=    7469 LenP2D=   20568.
 LDataN:  DoStor=T MaxTD1= 5 Len=  102
 Calling FoFJK, ICntrl=      2127 FMM=F ISym2X=0 I1Cent= 0 IOpClX= 0 NMat=1 NMatS=1 NMatT=0.
 ***** Axes restored to original set *****
 -------------------------------------------------------------------
 Center     Atomic                   Forces (Hartrees/Bohr)
 Number     Number              X              Y              Z
 -------------------------------------------------------------------
      1        6          -0.003677275    0.007925977   -0.003302315
      2        6           0.002949645   -0.010873786    0.005331954
      3        7          -0.004226771    0.005498384    0.004309983
      4        6           0.004252359    0.006102862   -0.001181361
      5        6          -0.006314669    0.001728771   -0.001995379
      6        7           0.002497085    0.003747771    0.007835083
      7        6           0.000861683    0.001904835   -0.018966312
      8        6          -0.001591801    0.003105505   -0.002705483
      9        6           0.001731572   -0.002280923   -0.001061119
     10        6           0.000890219   -0.005478547    0.001871070
     11        6          -0.000303112    0.000451893    0.008417948
     12        7          -0.000563801   -0.000799848    0.012356606
     13        6           0.000143512   -0.003549043   -0.002642319
     14        7          -0.006050742   -0.007362832   -0.007712453
     15        7           0.012543993   -0.000013263   -0.003799058
     16        1          -0.000148290   -0.004013323   -0.002542722
     17        1          -0.006499904   -0.001849970    0.001982606
     18        1           0.001266973   -0.001143588    0.004703016
     19        1          -0.001198005    0.003739245    0.000466354
     20        1          -0.001428091    0.002771915   -0.002591823
     21        1          -0.003177277   -0.003713002   -0.004865023
     22        1           0.005722704   -0.002004059   -0.004173465
     23        1          -0.001165024    0.002188955    0.005527289
     24        1           0.001227298    0.005297873   -0.001035556
     25        1           0.001883906   -0.001017816    0.000755360
     26        1           0.000373814   -0.000363986    0.005017117
 -------------------------------------------------------------------
 Cartesian Forces:  Max     0.018966312 RMS     0.004826774

 GradGradGradGradGradGradGradGradGradGradGradGradGradGradGradGradGradGrad
 Berny optimization.
 FormGI is forming the generalized inverse of G from B-inverse, IUseBI=4.
 Internal  Forces:  Max     0.024965845 RMS     0.006679987
 Search for a local minimum.
 Step number   1 out of a maximum of  136
 All quantities printed in internal units (Hartrees-Bohrs-Radians)
 Mixed Optimization -- RFO/linear search
 Second derivative matrix not updated -- first step.
 ITU=  0
     Eigenvalues ---    0.00237   0.00238   0.00497   0.00668   0.01040
     Eigenvalues ---    0.01101   0.01463   0.01818   0.01875   0.02189
     Eigenvalues ---    0.02302   0.02464   0.02539   0.02572   0.03092
     Eigenvalues ---    0.03143   0.03391   0.03853   0.04559   0.04660
     Eigenvalues ---    0.04816   0.04816   0.05264   0.05519   0.06346
     Eigenvalues ---    0.07151   0.08034   0.08714   0.09271   0.09708
     Eigenvalues ---    0.10929   0.11088   0.12898   0.13265   0.13515
     Eigenvalues ---    0.15977   0.15988   0.15989   0.17357   0.18872
     Eigenvalues ---    0.20213   0.22605   0.22958   0.23441   0.24044
     Eigenvalues ---    0.24702   0.24907   0.29825   0.34173   0.34398
     Eigenvalues ---    0.34418   0.34702   0.34729   0.34869   0.34934
     Eigenvalues ---    0.34964   0.36374   0.36487   0.36511   0.36525
     Eigenvalues ---    0.37473   0.45046   0.45138   0.45792   0.46816
     Eigenvalues ---    0.46929   0.51358   0.55995   0.57222   1.24668
     Eigenvalues ---    1.25326   1.27336
 RFO step:  Lambda=-5.01213791D-02 EMin= 2.36787816D-03
 Linear search not attempted -- first point.
 Maximum step size (   0.300) exceeded in Quadratic search.
    -- Step size scaled by   0.862
 Iteration  1 RMS(Cart)=  0.23684975 RMS(Int)=  0.02973729
 Iteration  2 RMS(Cart)=  0.11168320 RMS(Int)=  0.00492017
 Iteration  3 RMS(Cart)=  0.00703391 RMS(Int)=  0.00232550
 Iteration  4 RMS(Cart)=  0.00004930 RMS(Int)=  0.00232539
 Iteration  5 RMS(Cart)=  0.00000008 RMS(Int)=  0.00232539
 Variable       Old X    -DE/DX   Delta X   Delta X   Delta X     New X
                                 (Linear)    (Quad)   (Total)
    R1        2.88092   0.00859   0.00000   0.02065   0.02014   2.90106
    R2        2.05968   0.00867   0.00000   0.01765   0.01859   2.07827
    R3        2.05783   0.00699   0.00000   0.01508   0.01508   2.07291
    R4        2.05888   0.00468   0.00000   0.01012   0.01012   2.06900
    R5        2.75981   0.00829   0.00000   0.01602   0.01392   2.77373
    R6        2.06663   0.00326   0.00000   0.00713   0.00713   2.07377
    R7        2.06630   0.00320   0.00000   0.00700   0.00700   2.07330
    R8        2.58994   0.00597   0.00000   0.00985   0.00960   2.59954
    R9        2.52209   0.00084   0.00000  -0.00090  -0.00216   2.51993
   R10        2.56580   0.00288   0.00000   0.00550   0.00546   2.57126
   R11        2.03269   0.00687   0.00000   0.01425   0.01425   2.04693
   R12        2.58859   0.00640   0.00000   0.01006   0.01033   2.59891
   R13        2.03290   0.00727   0.00000   0.01509   0.01509   2.04799
   R14        2.51804   0.00102   0.00000  -0.00001  -0.00189   2.51615
   R15        2.74667   0.00638   0.00000   0.01119   0.00958   2.75625
   R16        2.03327   0.00604   0.00000   0.01256   0.01256   2.04583
   R17        2.06116   0.00543   0.00000   0.01177   0.01177   2.07293
   R18        2.06707   0.01145   0.00000   0.02507   0.02360   2.09067
   R19        2.05733   0.00495   0.00000   0.01067   0.01067   2.06800
   R20        2.64163   0.01364   0.00000   0.02388   0.02590   2.66753
   R21        2.19217   0.01308   0.00000   0.00882   0.01073   2.20291
   R22        2.63097   0.01673   0.00000   0.02776   0.02776   2.65873
   R23        2.64281   0.01694   0.00000   0.03027   0.03150   2.67431
   R24        2.19930   0.00877   0.00000   0.00580   0.00580   2.20510
   R25        2.19195   0.01443   0.00000   0.00998   0.01103   2.20298
   R26        4.40786   0.00482   0.00000   0.05432   0.05609   4.46396
   R27        4.14632   0.01127   0.00000   0.12196   0.12142   4.26774
    A1        1.92413   0.00346   0.00000   0.02868   0.03228   1.95641
    A2        1.90376  -0.00006   0.00000  -0.00360  -0.00397   1.89979
    A3        1.92100   0.00004   0.00000  -0.00006  -0.00146   1.91955
    A4        1.90789  -0.00027   0.00000  -0.00045  -0.00226   1.90563
    A5        1.89913  -0.00253   0.00000  -0.01698  -0.01766   1.88147
    A6        1.90781  -0.00066   0.00000  -0.00784  -0.00756   1.90025
    A7        1.92586   0.01026   0.00000   0.04314   0.03949   1.96535
    A8        1.93777  -0.00295   0.00000  -0.01390  -0.01358   1.92419
    A9        1.93797   0.00053   0.00000   0.01086   0.01248   1.95046
   A10        1.88035  -0.00231   0.00000  -0.00640  -0.00579   1.87457
   A11        1.87845  -0.00581   0.00000  -0.02487  -0.02365   1.85480
   A12        1.90148   0.00003   0.00000  -0.01016  -0.01078   1.89070
   A13        2.18521   0.00074   0.00000   0.00652   0.00871   2.19392
   A14        2.18656   0.00332   0.00000   0.00576   0.00276   2.18932
   A15        1.90679  -0.00412   0.00000  -0.01276  -0.01204   1.89475
   A16        1.86458   0.00107   0.00000   0.00425   0.00320   1.86778
   A17        2.13032  -0.00028   0.00000  -0.00139  -0.00100   2.12932
   A18        2.28756  -0.00089   0.00000  -0.00380  -0.00345   2.28411
   A19        1.86606   0.00088   0.00000   0.00262   0.00188   1.86794
   A20        2.29053  -0.00058   0.00000  -0.00225  -0.00221   2.28832
   A21        2.12607  -0.00039   0.00000  -0.00146  -0.00137   2.12471
   A22        1.90775  -0.00429   0.00000  -0.01226  -0.01190   1.89584
   A23        2.17949  -0.00039   0.00000   0.00482   0.00539   2.18488
   A24        2.19296   0.00461   0.00000   0.00667   0.00563   2.19859
   A25        1.87926   0.00660   0.00000   0.01957   0.01845   1.89771
   A26        2.20148  -0.00358   0.00000  -0.01148  -0.01177   2.18971
   A27        2.20203  -0.00316   0.00000  -0.00969  -0.00995   2.19209
   A28        1.91403  -0.00073   0.00000  -0.00312  -0.00110   1.91293
   A29        1.89312  -0.00281   0.00000   0.00143  -0.00342   1.88970
   A30        1.89711   0.00288   0.00000   0.00681   0.00710   1.90421
   A31        1.91986   0.00165   0.00000  -0.00227  -0.00073   1.91913
   A32        1.92296  -0.00052   0.00000  -0.00203  -0.00233   1.92063
   A33        1.91637  -0.00049   0.00000  -0.00066   0.00054   1.91691
   A34        2.05492  -0.00216   0.00000   0.00837   0.00616   2.06108
   A35        2.10883  -0.00971   0.00000  -0.02538  -0.02885   2.07998
   A36        2.04738   0.01379   0.00000   0.05314   0.05140   2.09878
   A37        1.66386   0.00829   0.00000   0.05526   0.06517   1.72903
   A38        1.62082   0.00767   0.00000   0.07028   0.07672   1.69754
   A39        2.57624  -0.00526   0.00000  -0.00766   0.00010   2.57634
   A40        2.59292   0.00719   0.00000   0.04181   0.03877   2.63169
   A41        3.05654  -0.00442   0.00000   0.00039   0.00660   3.06314
   A42        3.08643   0.01118   0.00000   0.09807   0.09807   3.18450
   A43        3.06184   0.00804   0.00000   0.11306   0.11695   3.17879
   A44        3.07957  -0.00611   0.00000   0.01663   0.02340   3.10296
   A45        3.24597  -0.01529   0.00000  -0.13411  -0.13411   3.11187
   A46        3.07277  -0.00632   0.00000  -0.05164  -0.05656   3.01621
    D1       -1.04057   0.00279   0.00000   0.02913   0.02768  -1.01288
    D2       -3.12415   0.00090   0.00000   0.01801   0.01808  -3.10607
    D3        1.04077   0.00252   0.00000   0.03302   0.03261   1.07338
    D4       -3.13560   0.00104   0.00000   0.01436   0.01286  -3.12274
    D5        1.06401  -0.00085   0.00000   0.00324   0.00325   1.06726
    D6       -1.05427   0.00078   0.00000   0.01825   0.01778  -1.03648
    D7        1.05455   0.00187   0.00000   0.02624   0.02542   1.07997
    D8       -1.02903  -0.00002   0.00000   0.01512   0.01581  -1.01322
    D9        3.13588   0.00161   0.00000   0.03013   0.03035  -3.11696
   D10        1.26919  -0.00038   0.00000   0.01650   0.01499   1.28418
   D11       -2.92145   0.00151   0.00000   0.02946   0.02894  -2.89251
   D12       -0.83907  -0.00095   0.00000   0.00963   0.00832  -0.83075
   D13        1.47054   0.00182   0.00000   0.03699   0.03770   1.50824
   D14       -1.55660   0.00276   0.00000   0.04371   0.04521  -1.51139
   D15       -2.69459   0.00292   0.00000   0.04185   0.04127  -2.65332
   D16        0.56145   0.00386   0.00000   0.04857   0.04878   0.61023
   D17       -0.64657  -0.00131   0.00000   0.01354   0.01388  -0.63269
   D18        2.60947  -0.00037   0.00000   0.02026   0.02139   2.63086
   D19       -3.06463   0.00369   0.00000   0.03535   0.03640  -3.02823
   D20        0.04006   0.00116   0.00000   0.01183   0.01251   0.05257
   D21       -0.02194   0.00326   0.00000   0.03039   0.03056   0.00862
   D22        3.08275   0.00073   0.00000   0.00687   0.00667   3.08942
   D23        3.06842  -0.00573   0.00000  -0.05865  -0.06024   3.00818
   D24       -0.04364  -0.00044   0.00000  -0.00157  -0.00174  -0.04538
   D25        0.02583  -0.00512   0.00000  -0.05374  -0.05484  -0.02901
   D26       -3.08623   0.00018   0.00000   0.00334   0.00366  -3.08257
   D27        0.00948  -0.00006   0.00000   0.00459   0.00477   0.01425
   D28        3.11583  -0.00302   0.00000  -0.03187  -0.03229   3.08354
   D29       -3.09063   0.00276   0.00000   0.03093   0.03147  -3.05916
   D30        0.01573  -0.00019   0.00000  -0.00552  -0.00559   0.01013
   D31        0.00617  -0.00313   0.00000  -0.03799  -0.03842  -0.03225
   D32        3.06856  -0.00375   0.00000  -0.04791  -0.04917   3.01940
   D33       -3.10424  -0.00051   0.00000  -0.00570  -0.00556  -3.10980
   D34       -0.04185  -0.00113   0.00000  -0.01562  -0.01631  -0.05816
   D35       -0.01978   0.00506   0.00000   0.05661   0.05783   0.03806
   D36        3.09228  -0.00025   0.00000  -0.00053  -0.00081   3.09147
   D37       -3.08141   0.00597   0.00000   0.06675   0.06871  -3.01270
   D38        0.03064   0.00066   0.00000   0.00961   0.01007   0.04071
   D39        1.40223   0.00012   0.00000   0.01652   0.01663   1.41885
   D40       -0.69479   0.00026   0.00000   0.02027   0.02023  -0.67456
   D41       -2.77772   0.00081   0.00000   0.01634   0.01748  -2.76024
   D42       -1.83138  -0.00105   0.00000   0.00414   0.00327  -1.82811
   D43        2.35479  -0.00091   0.00000   0.00789   0.00687   2.36165
   D44        0.27186  -0.00036   0.00000   0.00396   0.00412   0.27598
   D45       -0.66029  -0.00393   0.00000  -0.02371  -0.02175  -0.68203
   D46       -2.75368  -0.00229   0.00000  -0.01943  -0.01789  -2.77157
   D47        1.41051  -0.00240   0.00000  -0.01501  -0.01487   1.39563
   D48       -2.57819   0.02171   0.00000   0.29244   0.28120  -2.29699
   D49        0.10997   0.02497   0.00000   0.38483   0.38608   0.49604
   D50       -0.75706  -0.01884   0.00000  -0.30623  -0.30548  -1.06254
   D51        1.92903  -0.01277   0.00000  -0.19983  -0.20324   1.72579
   D52        0.36122   0.00613   0.00000   0.11639   0.11093   0.47215
   D53       -0.03132  -0.01502   0.00000  -0.17294  -0.17113  -0.20245
         Item               Value     Threshold  Converged?
 Maximum Force            0.024966     0.000015     NO 
 RMS     Force            0.006680     0.000010     NO 
 Maximum Displacement     2.047578     0.000060     NO 
 RMS     Displacement     0.332163     0.000040     NO 
 Predicted change in Energy=-3.765688D-02
 GradGradGradGradGradGradGradGradGradGradGradGradGradGradGradGradGradGrad

                          Input orientation:                          
 ---------------------------------------------------------------------
 Center     Atomic      Atomic             Coordinates (Angstroms)
 Number     Number       Type             X           Y           Z
 ---------------------------------------------------------------------
      1          6           0       -2.944446   -0.515179    0.508076
      2          6           0       -2.790903    0.854367   -0.168333
      3          7           0       -1.400538    1.150337   -0.533986
      4          6           0       -0.781227    0.776639   -1.704083
      5          6           0        0.531089    1.116140   -1.586038
      6          7           0        0.692186    1.673731   -0.339222
      7          6           0       -0.492959    1.710377    0.266545
      8          6           0        1.970677    2.045002    0.256578
      9          6           0        2.324083   -1.363936    0.096446
     10          6           0        1.109500   -1.833707    0.641153
     11          6           0        0.833148   -1.545590    1.990262
     12          7           0        0.640224   -1.352751    3.124821
     13          6           0        0.066924   -2.224135   -0.232545
     14          7           0       -0.724741   -2.468105   -1.052763
     15          7           0        3.283023   -0.884463   -0.361222
     16          1           0       -2.579647   -1.334266   -0.128727
     17          1           0       -4.004489   -0.680832    0.736415
     18          1           0       -2.373280   -0.537400    1.441891
     19          1           0       -3.129701    1.651103    0.505975
     20          1           0       -3.372845    0.917073   -1.096309
     21          1           0       -1.310269    0.255065   -2.492356
     22          1           0        1.370901    0.957534   -2.252426
     23          1           0       -0.674043    2.055680    1.276501
     24          1           0        2.286081    3.022540   -0.128436
     25          1           0        2.716466    1.273984   -0.014172
     26          1           0        1.859716    2.088370    1.344414
 ---------------------------------------------------------------------
                    Distance matrix (angstroms):
                    1          2          3          4          5
     1  C    0.000000
     2  C    1.535175   0.000000
     3  N    2.498698   1.467793   0.000000
     4  C    3.352903   2.530488   1.375617   0.000000
     5  C    4.373312   3.621331   2.199810   1.360650   0.000000
     6  N    4.328318   3.582243   2.165956   2.199674   1.375285
     7  C    3.319824   2.490466   1.333490   2.199623   2.198603
     8  C    5.547632   4.926541   3.576382   3.609143   2.516035
     9  C    5.352311   5.581582   4.537821   4.179344   3.492329
    10  C    4.265056   4.805637   4.072562   3.986086   3.741194
    11  C    4.186746   4.853151   4.316157   4.652649   4.468330
    12  N    4.516496   5.242982   4.880269   5.465633   5.319730
    13  C    3.540819   4.201008   3.692069   3.448105   3.633845
    14  N    3.343236   4.011242   3.717385   3.309950   3.835141
    15  N    6.298685   6.320864   5.109403   4.591369   3.616038
    16  H    1.099772   2.199162   2.779890   3.189354   4.219588
    17  H    1.096937   2.155968   3.427487   4.297636   5.403181
    18  H    1.094868   2.168927   2.774667   3.762776   4.509757
    19  H    2.174190   1.097389   2.079012   3.341313   4.250186
    20  H    2.192926   1.097146   2.064126   2.665632   3.939563
    21  H    3.502343   2.820022   2.155197   1.083189   2.225637
    22  H    5.330242   4.655609   3.266662   2.228241   1.083750
    23  H    3.514900   2.830511   2.150652   3.245199   3.244874
    24  H    6.346575   5.520718   4.154608   4.115230   2.973039
    25  H    5.959847   5.525483   4.151532   3.916250   2.696582
    26  H    5.527921   5.043752   3.877828   4.241292   3.361255
                    6          7          8          9         10
     6  N    0.000000
     7  C    1.331489   0.000000
     8  C    1.458547   2.486277   0.000000
     9  C    3.475675   4.173255   3.430947   0.000000
    10  C    3.665707   3.907523   3.991730   1.411596   0.000000
    11  C    3.976229   3.915492   4.146322   2.417111   1.406939
    12  N    4.600206   4.340115   4.641299   3.465048   2.572964
    13  C    3.949138   4.005364   4.699899   2.437816   1.415185
    14  N    4.435271   4.387939   5.417360   3.440233   2.576093
    15  N    3.641055   4.624427   3.268898   1.165727   2.574883
    16  H    4.449409   3.712190   5.680965   4.908987   3.801574
    17  H    5.362809   4.274284   6.585061   6.397423   5.243194
    18  H    4.178342   3.157459   5.190735   4.955664   3.801493
    19  H    3.914292   2.648254   5.121641   6.245153   5.489353
    20  H    4.203592   3.283359   5.626345   6.251452   5.538680
    21  H    3.264725   3.224510   4.639517   4.746744   4.476285
    22  H    2.152660   3.222726   2.799539   3.437292   4.028914
    23  H    2.150123   1.082606   2.834590   4.698411   4.325739
    24  H    2.098623   3.098523   1.096948   4.392401   5.055664
    25  H    2.088820   3.251100   1.106334   2.669236   3.559429
    26  H    2.090379   2.615294   1.094341   3.700200   4.054638
                   11         12         13         14         15
    11  C    0.000000
    12  N    1.166889   0.000000
    13  C    2.447120   3.515664   0.000000
    14  N    3.540912   4.534242   1.165767   0.000000
    15  N    3.459545   4.399565   3.486341   4.364439   0.000000
    16  H    4.022679   4.577497   2.794098   2.362225   5.884495
    17  H    5.071753   5.265863   4.460613   4.141527   7.372524
    18  H    3.405633   3.546583   3.406377   3.559297   5.946884
    19  H    5.303407   5.485784   5.077528   5.018104   6.950119
    20  H    5.769057   6.250981   4.737645   4.298113   6.934441
    21  H    5.284928   6.159722   3.626271   3.135431   5.190241
    22  H    4.955322   5.897974   3.987893   4.191170   3.259727
    23  H    3.968656   4.094019   4.598159   5.088484   5.194704
    24  H    5.240965   5.695235   5.697640   6.329820   4.038905
    25  H    3.938863   4.589531   4.393700   5.188816   2.258389
    26  H    3.831009   4.061813   4.929362   5.760846   3.711163
                   16         17         18         19         20
    16  H    0.000000
    17  H    1.790425   0.000000
    18  H    1.773252   1.783007   0.000000
    19  H    3.101263   2.501255   2.497530   0.000000
    20  H    2.575637   2.512201   3.091453   1.779111   0.000000
    21  H    3.118339   4.308096   4.151662   3.774817   2.577095
    22  H    5.036792   6.364922   5.468244   5.324024   4.882762
    23  H    4.134940   4.344199   3.104645   2.605311   3.769640
    24  H    6.531238   7.350796   6.070316   5.622633   6.114999
    25  H    5.904651   7.039597   5.595243   5.881364   6.195007
    26  H    5.795906   6.513605   4.982211   5.078234   5.891415
                   21         22         23         24         25
    21  H    0.000000
    22  H    2.782032   0.000000
    23  H    4.225078   4.223867   0.000000
    24  H    5.116715   3.100507   3.416285   0.000000
    25  H    4.836754   2.630679   3.711124   1.804366   0.000000
    26  H    5.303831   3.801973   2.534880   1.795480   1.800834
                   26
    26  H    0.000000
 Stoichiometry    C10H11N5
 Framework group  C1[X(C10H11N5)]
 Deg. of freedom    72
 Full point group                 C1      NOp   1
 Largest Abelian subgroup         C1      NOp   1
 Largest concise Abelian subgroup C1      NOp   1
                         Standard orientation:                         
 ---------------------------------------------------------------------
 Center     Atomic      Atomic             Coordinates (Angstroms)
 Number     Number       Type             X           Y           Z
 ---------------------------------------------------------------------
      1          6           0        2.487310    1.762184    0.414060
      2          6           0        2.981567    0.310133    0.350672
      3          7           0        1.902335   -0.640998    0.059082
      4          6           0        1.460950   -0.994586   -1.194903
      5          6           0        0.362966   -1.779781   -1.023822
      6          7           0        0.143586   -1.875714    0.330460
      7          6           0        1.102265   -1.204160    0.965136
      8          6           0       -1.016241   -2.505435    0.951437
      9          6           0       -2.514282    0.156167   -0.611619
     10          6           0       -1.695552    1.243808   -0.238361
     11          6           0       -1.635281    1.590792    1.123787
     12          7           0       -1.638062    1.907852    2.246772
     13          6           0       -0.696570    1.694428   -1.133751
     14          7           0        0.114743    1.937298   -1.934873
     15          7           0       -3.116093   -0.803486   -0.886955
     16          1           0        2.003034    2.075550   -0.522304
     17          1           0        3.342432    2.419180    0.615042
     18          1           0        1.757135    1.873926    1.222203
     19          1           0        3.426106    0.018018    1.310525
     20          1           0        3.734656    0.170882   -0.434945
     21          1           0        1.927911   -0.615632   -2.095814
     22          1           0       -0.311949   -2.227714   -1.743793
     23          1           0        1.170003   -1.063939    2.036484
     24          1           0       -0.871813   -3.592365    0.983371
     25          1           0       -1.909372   -2.260793    0.346091
     26          1           0       -1.136497   -2.113079    1.965920
 ---------------------------------------------------------------------
 Rotational constants (GHZ):           0.7023330           0.5536353           0.4442308
 Standard basis: def2SVP (5D, 7F)
 There are   280 symmetry adapted cartesian basis functions of A   symmetry.
 There are   265 symmetry adapted basis functions of A   symmetry.
   265 basis functions,   452 primitive gaussians,   280 cartesian basis functions
    53 alpha electrons       53 beta electrons
       nuclear repulsion energy       926.6503620681 Hartrees.
 NAtoms=   26 NActive=   26 NUniq=   26 SFac= 1.00D+00 NAtFMM=   60 NAOKFM=F Big=F
 Integral buffers will be    131072 words long.
 Raffenetti 2 integral format.
 Two-electron integral symmetry is turned on.
 Nuclear repulsion after empirical dispersion term =      926.6295578171 Hartrees.
 Standard density basis: W06 (5D, 7F)
   856 Density fitting functions
 There are   856 symmetry adapted density basis functions of A   symmetry.
 One-electron integrals computed using PRISM.
   1 Symmetry operations used in ECPInt.
 ECPInt:  NShTT=    7626 NPrTT=   27958 LenC2=    7421 LenP2D=   20037.
 LDataN:  DoStor=T MaxTD1= 4 Len=   56
 NBasis=   265 RedAO= T EigKep=  6.52D-04  NBF=   265
 NBsUse=   265 1.00D-06 EigRej= -1.00D+00 NBFU=   265
 Initial guess from the checkpoint file:  "c1c2im_ccn3.chk"
 B after Tr=    -0.000000    0.000000    0.000000
         Rot=    0.957497    0.202496    0.083545   -0.187654 Ang=  33.53 deg.
 ExpMin= 1.22D-01 ExpMax= 1.71D+03 ExpMxC= 2.58D+02 IAcc=3 IRadAn=         5 AccDes= 0.00D+00
 Harris functional with IExCor= 4639 and IRadAn=       5 diagonalized for initial guess.
 HarFok:  IExCor= 4639 AccDes= 0.00D+00 IRadAn=         5 IDoV= 1 UseB2=F ITyADJ=14
 ICtDFT=  3500011 ScaDFX=  1.000000  1.000000  1.000000  1.000000
 FoFCou: FMM=F IPFlag=           0 FMFlag=      100000 FMFlg1=           0
         NFxFlg=           0 DoJE=T BraDBF=F KetDBF=T FulRan=T
         wScrn=  0.000000 ICntrl=       500 IOpCl=  0 I1Cent=   200000004 NGrid=           0
         NMat0=    1 NMatS0=      1 NMatT0=    0 NMatD0=    1 NMtDS0=    0 NMtDT0=    0
 Petite list used in FoFCou.
 Requested convergence on RMS density matrix=1.00D-08 within 128 cycles.
 Requested convergence on MAX density matrix=1.00D-06.
 Requested convergence on             energy=1.00D-06.
 No special actions if energy rises.
 Integral accuracy reduced to 1.0D-05 until final iterations.
 Initial convergence to 1.0D-05 achieved.  Increase integral accuracy.
 SCF Done:  E(RwB97XD) =  -660.654099387     A.U. after   17 cycles
            NFock= 17  Conv=0.82D-08     -V/T= 2.0105
   1 Symmetry operations used in ECPInt.
 ECPInt:  NShTT=    7626 NPrTT=   27958 LenC2=    7421 LenP2D=   20037.
 LDataN:  DoStor=T MaxTD1= 5 Len=  102
 Calling FoFJK, ICntrl=      2127 FMM=F ISym2X=0 I1Cent= 0 IOpClX= 0 NMat=1 NMatS=1 NMatT=0.
 ***** Axes restored to original set *****
 -------------------------------------------------------------------
 Center     Atomic                   Forces (Hartrees/Bohr)
 Number     Number              X              Y              Z
 -------------------------------------------------------------------
      1        6           0.001304234    0.006429482   -0.005892713
      2        6          -0.000082496   -0.008404198    0.003091968
      3        7          -0.001185663    0.001522878   -0.000730317
      4        6          -0.000558497    0.000086694    0.002438230
      5        6           0.000592421   -0.002388987    0.002669415
      6        7           0.000198763    0.000448237    0.000813031
      7        6           0.002845647   -0.009930840   -0.001970338
      8        6           0.004038861    0.001958390   -0.004239565
      9        6          -0.004137702    0.001117699   -0.002660173
     10        6          -0.003845575    0.005193582   -0.005609422
     11        6           0.000228568   -0.006650366    0.015141425
     12        7          -0.002339178    0.004779093   -0.005520313
     13        6           0.008928086    0.002596648   -0.006065276
     14        7          -0.004181001   -0.001669954    0.002104464
     15        7           0.003130953   -0.000154641   -0.001147628
     16        1          -0.000580554    0.002007040   -0.000913205
     17        1          -0.001127367    0.000109897    0.000796104
     18        1           0.001346540   -0.001042220    0.003533624
     19        1          -0.000379848    0.002283073   -0.001213779
     20        1          -0.001450428    0.000488309    0.000181847
     21        1          -0.000648338   -0.001036323   -0.001195014
     22        1           0.001377462   -0.001000380   -0.000595974
     23        1          -0.000392986    0.001029480    0.003179383
     24        1           0.000187585    0.001323146    0.000386180
     25        1          -0.003501211    0.001878432    0.002605749
     26        1           0.000231726   -0.000974172    0.000812295
 -------------------------------------------------------------------
 Cartesian Forces:  Max     0.015141425 RMS     0.003574763

 GradGradGradGradGradGradGradGradGradGradGradGradGradGradGradGradGradGrad
 Berny optimization.
 Using GEDIIS/GDIIS optimizer.
 FormGI is forming the generalized inverse of G from B-inverse, IUseBI=4.
 Internal  Forces:  Max     0.010266303 RMS     0.003112942
 Search for a local minimum.
 Step number   2 out of a maximum of  136
 All quantities printed in internal units (Hartrees-Bohrs-Radians)
 Mixed Optimization -- RFO/linear search
 Update second derivatives using D2CorX and points    2    1
 DE=  2.63D-03 DEPred=-3.77D-02 R=-6.98D-02
 Trust test=-6.98D-02 RLast= 7.30D-01 DXMaxT set to 1.50D-01
 ITU= -1  0
 Use linear search instead of GDIIS.
     Eigenvalues ---    0.00235   0.00242   0.00652   0.00764   0.01060
     Eigenvalues ---    0.01253   0.01769   0.01822   0.02142   0.02303
     Eigenvalues ---    0.02358   0.02465   0.02580   0.02596   0.03056
     Eigenvalues ---    0.03289   0.03636   0.03951   0.04348   0.04455
     Eigenvalues ---    0.04810   0.05085   0.05428   0.06312   0.07068
     Eigenvalues ---    0.07522   0.08472   0.08853   0.09580   0.10922
     Eigenvalues ---    0.11242   0.12018   0.13106   0.13314   0.13868
     Eigenvalues ---    0.15904   0.15929   0.15959   0.17085   0.19050
     Eigenvalues ---    0.19223   0.21947   0.22747   0.23191   0.24319
     Eigenvalues ---    0.24463   0.24783   0.30249   0.33061   0.34392
     Eigenvalues ---    0.34408   0.34459   0.34743   0.34897   0.34956
     Eigenvalues ---    0.34965   0.36078   0.36442   0.36506   0.36519
     Eigenvalues ---    0.37477   0.42646   0.45159   0.45796   0.46509
     Eigenvalues ---    0.46805   0.51314   0.55960   0.57239   1.22520
     Eigenvalues ---    1.25392   1.27163
 RFO step:  Lambda=-5.89718329D-03 EMin= 2.35228459D-03
 Quartic linear search produced a step of -0.65485.
 Maximum step size (   0.150) exceeded in Quadratic search.
    -- Step size scaled by   0.647
 Iteration  1 RMS(Cart)=  0.19248242 RMS(Int)=  0.01837993
 Iteration  2 RMS(Cart)=  0.06875787 RMS(Int)=  0.00217555
 Iteration  3 RMS(Cart)=  0.00299702 RMS(Int)=  0.00060405
 Iteration  4 RMS(Cart)=  0.00000461 RMS(Int)=  0.00060405
 Iteration  5 RMS(Cart)=  0.00000000 RMS(Int)=  0.00060405
 Variable       Old X    -DE/DX   Delta X   Delta X   Delta X     New X
                                 (Linear)    (Quad)   (Total)
    R1        2.90106  -0.01027  -0.01319   0.01060  -0.00240   2.89866
    R2        2.07827  -0.00190  -0.01217   0.01462   0.00211   2.08038
    R3        2.07291   0.00124  -0.00988   0.01345   0.00357   2.07648
    R4        2.06900   0.00374  -0.00663   0.01092   0.00429   2.07329
    R5        2.77373   0.00036  -0.00911   0.01393   0.00527   2.77900
    R6        2.07377   0.00103  -0.00467   0.00666   0.00198   2.07575
    R7        2.07330   0.00064  -0.00459   0.00629   0.00171   2.07501
    R8        2.59954  -0.00056  -0.00629   0.00762   0.00158   2.60112
    R9        2.51993  -0.00011   0.00142   0.00002   0.00131   2.52124
   R10        2.57126   0.00259  -0.00358   0.00490   0.00167   2.57292
   R11        2.04693   0.00168  -0.00933   0.01301   0.00368   2.05061
   R12        2.59891   0.00002  -0.00676   0.00840   0.00166   2.60057
   R13        2.04799   0.00158  -0.00988   0.01365   0.00377   2.05176
   R14        2.51615  -0.00095   0.00124   0.00005   0.00142   2.51757
   R15        2.75625   0.00049  -0.00628   0.01015   0.00412   2.76037
   R16        2.04583   0.00336  -0.00822   0.01263   0.00441   2.05024
   R17        2.07293   0.00110  -0.00771   0.01058   0.00287   2.07581
[...]
 0.00151411,-0.00049005,0.00080008,-0.00091622,0.00042520,0.00105216,0.
 00245563,0.00088221,0.00189421,0.00021932,-0.00012119,0.00010303,-0.00
 011442,-0.00007825,0.00008662,0.00005233,0.00011677,-0.00002964,0.0000
 1176,0.00000007,0.00006608,0.00008836,0.00004460,-0.00005175,-0.000129
 03,-0.00015571,-0.00015212,0.00024070,0.00001849,-0.00002177,0.0000719
 6,0.00009137,-0.00006944,0.00069821,-0.00091482,0.00109649,0.00029461,
 -0.00014986,-0.00011453,-0.00001967,0.00033617,0.00051412,0.08614477,0
 .00716694,-0.02153998,-0.01607613,0.06500125,-0.21201881,-0.12421167,-
 0.00514098,0.00655970,0.00633117,-0.00140570,0.00021440,0.00009973,-0.
 00039076,0.00008405,0.00056121,0.00029192,0.00032174,-0.00000827,-0.00
 077512,0.00068165,0.00028395,0.00004247,-0.00004351,0.00000900,-0.0001
 2398,-0.00004077,0.00011048,0.00005895,0.00015360,0.00016934,0.0000879
 7,-0.00007421,-0.00019752,-0.00009904,0.00017058,0.00009984,-0.0003300
 3,-0.00025507,-0.00030188,0.00049712,-0.00000693,-0.00003448,0.0000864
 0,0.00006407,-0.00005576,-0.00153288,-0.00348579,0.00412546,-0.0003126
 7,0.00071011,-0.00008912,0.00038018,0.00115645,0.00002576,-0.06315459,
 0.22621828,-0.00555185,0.01445365,0.01141387,0.04598837,-0.12004600,-0
 .13979761,0.00300103,-0.00410643,-0.00589692,0.00139404,-0.00005151,0.
 00092471,0.00010457,0.00008109,-0.00040837,-0.00000350,0.00043055,-0.0
 0004803,-0.00105158,0.00020264,0.00088603,-0.00005822,-0.00006469,-0.0
 0000230,-0.00001027,0.00001608,-0.00002424,0.00001530,-0.00006823,-0.0
 0005345,-0.00003962,0.00005210,0.00008069,0.00007090,-0.00009334,-0.00
 001851,0.00006724,0.00009112,0.00006716,-0.00015320,-0.00004807,0.0000
 6841,0.00001057,-0.00002466,0.00001559,0.00078523,0.00319211,-0.001254
 81,0.00004414,-0.00085064,0.00058449,-0.00041682,-0.00042544,0.0008198
 1,-0.05351425,0.12713010,0.14483144,0.00429484,0.00031165,0.00516721,-
 0.11511096,0.00614351,-0.11131645,-0.02838760,-0.00440289,-0.03089101,
 0.00186020,-0.00072271,-0.00176191,-0.00042108,-0.00037239,-0.00075319
 ,-0.00221748,-0.00093907,0.00008271,-0.00216109,0.00257163,0.00368378,
 0.00008601,-0.00014391,0.00049115,-0.00007691,-0.00005149,0.00006320,0
 .00004529,0.00010466,0.00002877,0.00003953,-0.00004053,-0.00000789,0.0
 0007526,0.00013749,-0.00003393,-0.00015154,-0.00013840,-0.00012529,0.0
 0015965,-0.00000651,0.00005429,0.00005075,0.00007891,-0.00002489,-0.00
 006918,-0.00000651,-0.00041491,0.00025971,0.00020477,0.00002978,0.0005
 8979,-0.00151496,0.00044021,0.00673023,-0.00073952,0.00923256,0.134971
 67,0.01526740,-0.00050995,0.02659289,0.00511593,-0.04876105,0.00669519
 ,-0.00431956,-0.00139983,-0.00545047,0.00028395,0.00053079,0.00028988,
 0.00022217,-0.00008254,0.00019486,-0.00017426,-0.00017794,-0.00058990,
 -0.00135663,0.00043336,0.00048003,0.00001492,0.00002429,0.00007426,-0.
 00004376,-0.00004130,0.00000353,-0.00007185,-0.00005843,-0.00012197,-0
 .00008804,0.00011392,0.00026633,0.00021909,0.00001126,-0.00013631,0.00
 011025,0.00006572,0.00009707,-0.00012677,0.00007599,-0.00013920,0.0000
 1901,0.00003253,-0.00002059,0.00057703,0.00112109,-0.00040258,-0.00029
 726,0.00101075,-0.00049021,-0.00158141,-0.00500674,0.00250899,-0.01315
 603,0.00145742,-0.01962302,-0.00089861,0.05101476,-0.00604774,0.000496
 74,-0.01091015,-0.12462455,0.00405296,-0.26134006,0.00954568,0.0003652
 0,0.00917479,0.00115559,0.00032898,0.00125054,-0.00010409,-0.00017871,
 0.00042088,0.00095326,0.00035704,0.00027200,0.00115493,-0.00023230,-0.
 00055781,-0.00003392,0.00017626,-0.00015204,0.00011426,0.00005500,-0.0
 0004590,-0.00000376,0.00001442,0.00009029,0.00006245,-0.00011019,-0.00
 022000,-0.00021245,0.00003249,0.00009747,-0.00001395,-0.00000237,0.000
 00002,-0.00003123,-0.00000026,0.00007484,-0.00007754,-0.00004748,0.000
 03710,0.00024958,-0.00011940,0.00095636,0.00020829,0.00010356,0.000071
 43,0.00109035,0.00273153,0.00026390,-0.00878068,0.00194512,-0.01272132
 ,0.12550186,-0.01021261,0.27321074,-0.00010425,-0.00000116,-0.00008518
 ,0.00181765,0.00043084,0.00016459,0.01145341,0.01059831,0.01597630,-0.
 13445193,-0.07934764,-0.11644631,0.00195665,-0.00853910,-0.01880893,-0
 .00495714,-0.00259688,-0.00052390,-0.00302347,0.00005597,0.00403382,0.
 00074653,-0.00028707,-0.00075522,-0.00009352,0.00000630,0.00002166,0.0
 0006334,0.00005005,-0.00002372,0.00006000,-0.00008262,-0.00006291,-0.0
 0002790,-0.00001964,0.00010775,-0.00029781,-0.00021806,-0.00025077,-0.
 00002345,-0.00005681,0.00036427,0.00007760,0.00006877,0.00003944,0.000
 11124,-0.00005215,0.00003177,-0.00002976,0.00001751,0.00002174,0.00003
 932,0.00002086,-0.00006388,-0.00007929,-0.00001165,-0.00017571,-0.0003
 2946,0.00016474,-0.00034197,0.12601765,-0.00000307,0.00021598,0.000181
 87,-0.00010815,-0.00116904,0.00051788,-0.00181952,-0.00287736,-0.00045
 332,-0.07736974,-0.10038115,-0.12115158,0.00096093,0.00102219,-0.00196
 827,-0.00085122,0.00442470,-0.00113620,-0.00013891,0.00240087,-0.00134
 293,-0.00012316,0.00099022,-0.00059875,0.00044686,0.00001722,-0.000197
 59,-0.00048880,-0.00028905,-0.00037548,-0.00025049,0.00028246,0.000387
 53,0.00015536,-0.00017951,-0.00023180,0.00081534,0.00040634,0.00072559
 ,-0.00045490,0.00010816,-0.00086213,-0.00026734,-0.00017582,0.00013337
 ,-0.00009587,-0.00008189,0.00011792,0.00001316,-0.00008999,-0.00001426
 ,-0.00001465,-0.00009082,0.00000477,0.00003711,-0.00001220,0.00002075,
 0.00048215,0.00020031,0.00004604,0.07921385,0.09640544,0.00015199,-0.0
 0003502,-0.00008501,-0.00151968,0.00062351,0.00058405,-0.01418966,-0.0
 0945970,-0.01593095,-0.10891046,-0.11595687,-0.22574110,0.00174616,0.0
 0223944,0.00564987,0.00169542,-0.00123792,0.00265885,0.00480945,-0.000
 86525,-0.00169015,-0.00019083,-0.00040189,0.00065323,-0.00027971,-0.00
 002308,0.00013368,0.00022619,0.00014194,0.00020681,0.00012138,-0.00011
 673,-0.00024140,-0.00006090,0.00008969,0.00016896,-0.00053765,-0.00039
 047,-0.00043301,0.00045051,-0.00025810,0.00033961,0.00017970,0.0000388
 6,-0.00009392,0.00010289,0.00013986,-0.00015358,-0.00003136,0.00008830
 ,0.00002918,-0.00003402,-0.00001747,0.00006171,0.00004034,0.00004372,0
 .00027662,0.00057943,-0.00010927,-0.00003709,0.11648431,0.12525366,0.2
 3421013,-0.00012517,0.00002027,0.00003052,0.00037273,0.00029515,0.0006
 5723,-0.00374108,-0.00200606,-0.00035540,-0.00397116,0.00559155,0.0151
 1181,-0.25676521,0.02599117,0.15703145,0.00999407,-0.00130039,-0.00862
 525,-0.00022868,-0.00152946,-0.00274803,0.00118593,0.00017663,0.000236
 59,0.00068937,0.00051870,-0.00064631,-0.00071959,-0.00021425,0.0003466
 3,0.00006656,-0.00028351,-0.00032724,-0.00010467,0.00023484,0.00012460
 ,0.00023648,0.00024441,0.00034414,-0.00017410,-0.00001558,-0.00024624,
 -0.00047819,-0.00017887,0.00047524,0.00001903,-0.00000457,-0.00000327,
 0.00000971,-0.00003491,0.00000840,0.00000803,-0.00001255,0.00000305,-0
 .00019672,-0.00004684,0.00006246,0.00005641,0.00000640,-0.00003102,0.0
 0036060,0.00036577,-0.00044683,0.25302372,0.00026467,0.00000257,-0.000
 06284,-0.00034608,0.00142811,0.00005323,-0.00345739,0.00348255,-0.0020
 2566,-0.00429696,0.00414170,0.00720284,0.02504373,-0.03839530,-0.03430
 337,0.01088441,-0.00232026,-0.00548619,-0.00127540,0.00169847,-0.00313
 691,0.00048607,-0.00118239,0.00113851,-0.00083838,-0.00078567,0.000930
 29,0.00049367,0.00031243,-0.00038114,-0.00019812,0.00048537,0.00057319
 ,0.00011198,-0.00032604,-0.00034347,-0.00011001,-0.00025505,-0.0001292
 1,0.00023209,0.00006132,-0.00000697,0.00038045,-0.00004832,-0.00080225
 ,-0.00003281,0.00001142,0.00002772,0.00002405,0.00004095,0.00001223,-0
 .00002336,-0.00002503,0.00003244,-0.00041786,-0.00014570,0.00004003,-0
 .00001019,-0.00002705,0.00006626,0.00095139,-0.00238415,0.00102369,-0.
 02791518,0.03262957,-0.00023696,0.00001736,0.00002572,0.00049642,-0.00
 024759,0.00069884,-0.00261004,-0.00224803,0.00252949,-0.00465467,0.002
 21110,0.00869156,0.14658679,-0.03310539,-0.16587154,0.02285000,-0.0011
 7565,-0.01460247,-0.00350201,-0.00339130,-0.00344063,0.00133853,0.0009
 9293,0.00093746,0.00097741,0.00057717,-0.00066683,-0.00047006,-0.00024
 072,0.00029339,0.00008570,-0.00024853,-0.00041633,-0.00009880,0.000191
 23,0.00025111,0.00023049,0.00026297,0.00023566,-0.00015067,-0.00012764
 ,-0.00016175,-0.00034219,-0.00057071,0.00044472,0.00002739,-0.00000051
 ,-0.00000552,-0.00002398,-0.00006284,0.00001518,0.00001495,-0.00000015
 ,-0.00001385,-0.00005607,0.00004317,0.00007499,0.00004949,0.00002190,-
 0.00004861,0.00012376,0.00114758,-0.00063927,-0.16078739,0.03629883,0.
 17174716,-0.00021564,0.00010386,0.00000693,0.00205857,0.00021235,-0.00
 083978,0.00945155,-0.00586448,-0.02272821,-0.00352992,-0.00248133,-0.0
 0173550,-0.00527600,-0.00140816,0.00049706,0.00111395,0.00901417,0.027
 34133,-0.06994833,0.00721161,0.05183543,0.00192715,0.00092323,0.001123
 58,-0.00019198,-0.00003164,0.00000770,0.00016271,-0.00013881,-0.000372
 14,-0.00020036,0.00045172,0.00046375,-0.00048746,-0.00026594,-0.000342
 88,0.00023104,0.00007135,0.00017765,-0.00019021,-0.00006174,-0.0000644
 5,0.00009559,0.00000847,-0.00008691,0.00011546,0.00002189,0.00001602,-
 0.00002308,-0.00002830,0.00000979,0.00009454,-0.00018057,-0.00000011,-
 0.00039887,0.00044720,0.00016745,-0.00011061,0.00016613,0.00019345,0.0
 0099163,-0.00044858,-0.00051675,0.00064899,0.00021196,0.00101978,0.064
 43787,-0.00020926,-0.00005054,-0.00026194,0.00075033,-0.00136599,0.000
 94897,0.00441589,-0.00164622,-0.01102638,-0.00356604,0.00219266,-0.000
 35136,-0.00035886,0.00333414,0.00013244,0.00013649,0.00215275,0.002487
 66,0.00670559,-0.05401519,-0.08636416,0.00064999,-0.00239511,0.0004322
 6,0.00070991,0.00024677,-0.00021978,-0.00038865,0.00047068,0.00096588,
 0.00065674,-0.00106189,-0.00108370,-0.00021616,-0.00010310,0.00089656,
 -0.00047637,-0.00029261,-0.00026136,0.00030944,0.00012481,0.00021827,-
 0.00044377,-0.00025672,0.00015908,0.00001375,-0.00000080,0.00007020,0.
 00009616,-0.00005252,0.00015994,-0.00019464,-0.00032246,0.00013589,0.0
 0004634,-0.00013662,-0.00032467,0.00006298,0.00001266,0.00008720,-0.00
 015977,0.00129907,-0.00088139,-0.00006522,0.00147408,-0.00043482,-0.00
 800539,0.05002002,0.00008188,-0.00013443,0.00016479,0.00026933,0.00068
 859,-0.00008080,0.00464007,-0.00208730,-0.00775000,-0.00254370,-0.0009
 0544,0.00147876,0.00135417,0.00033924,0.00219526,-0.00163539,-0.001675
 15,-0.00370729,0.05394058,-0.09178862,-0.33804219,-0.00015396,0.000655
 35,0.00057295,-0.00034585,-0.00016164,0.00010404,0.00027847,-0.0003981
 4,-0.00048728,-0.00023970,0.00050448,-0.00020428,-0.00046268,0.0009045
 4,-0.00113188,0.00031293,0.00011494,0.00017941,-0.00019879,0.00001928,
 -0.00013716,0.00016131,0.00019349,-0.00010147,0.00000764,0.00003745,-0
 .00006444,0.00002811,0.00005431,-0.00002805,-0.00001359,0.00005547,0.0
 0002274,-0.00045234,-0.00001837,0.00017038,0.00001901,0.00008864,0.000
 07732,0.00030978,-0.00026904,0.00004734,-0.00000779,-0.00034567,0.0001
 8299,-0.05548911,0.09417169,0.34649131,0.00002843,0.00005692,0.0000068
 8,0.00016042,0.00035169,-0.00038159,-0.00161682,-0.00014342,-0.0021138
 1,-0.00182273,0.00010339,0.00036032,0.00050506,0.00036607,0.00255726,-
 0.01545326,-0.03309059,0.00274618,0.00259058,-0.00150808,-0.00148987,-
 0.05172156,-0.02988638,0.00795325,-0.00102125,-0.00002912,0.00057196,0
 .00029199,-0.00014757,-0.00013501,-0.00005600,0.00012747,0.00026715,0.
 00021291,-0.00016795,-0.00006650,-0.00020735,-0.00005529,-0.00026136,0
 .00019194,0.00000836,0.00015587,0.00046771,0.00099249,0.00010332,-0.00
 001168,0.00001881,0.00000300,-0.00001314,-0.00002263,0.00000963,-0.000
 00729,-0.00001052,0.00000132,-0.00007964,-0.00001224,0.00002330,-0.000
 14044,-0.00003138,0.00006382,-0.00009720,0.00020881,-0.00006747,0.0000
 7415,-0.00009878,-0.00003131,-0.00000332,-0.00046076,0.00011096,0.0605
 6989,-0.00003791,0.00003679,0.00000189,0.00010529,-0.00002406,-0.00006
 253,-0.00039212,-0.00041710,-0.00077878,-0.00073903,0.00012592,0.00012
 933,-0.00015923,0.00017422,0.00110596,-0.00560205,-0.00353036,-0.00176
 434,0.00174077,0.00013964,-0.00077592,-0.03615838,-0.31313633,0.058618
 77,0.00045005,-0.00001677,-0.00031773,-0.00006807,0.00004775,0.0000931
 2,-0.00000438,-0.00000867,-0.00009267,-0.00002314,0.00001478,0.0000686
 8,0.00007174,0.00006341,0.00008364,-0.00005402,-0.00005543,-0.00005520
 ,-0.00019252,-0.00048436,-0.00006584,0.00001339,0.00000424,-0.00000102
 ,-0.00001278,-0.00001446,0.00001117,0.00001138,-0.00000514,-0.00000484
 ,-0.00002373,0.00000260,0.00000091,-0.00003742,-0.00000004,0.00001984,
 -0.00004161,0.00003466,0.00000126,-0.00003754,-0.00029630,0.00006519,-
 0.00000428,-0.00022638,0.00002405,0.04488615,0.32967514,-0.00001440,0.
 00004051,-0.00001910,0.00013555,0.00013718,-0.00012181,-0.00100603,-0.
 00068070,-0.00089314,-0.00052253,0.00046669,0.00006816,-0.00055639,-0.
 00037741,0.00070522,-0.00678947,-0.01830267,0.00220165,0.00222110,0.00
 013120,-0.00033401,0.00982200,0.06152963,-0.06368581,0.00015548,-0.000
 06834,-0.00013653,-0.00005659,0.00001553,0.00016056,0.00019342,-0.0002
 8256,-0.00042746,0.00020525,0.00026218,0.00024972,-0.00013476,-0.00002
 906,-0.00008275,0.00010228,0.00001018,0.00005609,-0.00004336,-0.000267
 05,0.00001325,-0.00001162,0.00000543,0.00000372,-0.00000424,-0.0000223
 9,0.00001853,-0.00001836,0.00000249,0.00000355,-0.00004446,-0.00000247
 ,0.00000068,-0.00006775,-0.00000816,0.00003255,-0.00008123,0.00014393,
 -0.00008029,0.00002567,-0.00026515,0.00002850,-0.00000536,0.00016712,-
 0.00000730,-0.00380917,-0.06054187,0.06005141,-0.00011936,0.00003301,-
 0.00000726,0.00022745,-0.00030395,-0.00017292,-0.00147400,-0.00076554,
 -0.00003215,-0.00037842,0.00004300,0.00068709,0.00132492,0.00085872,0.
 00134746,-0.03036953,0.01298371,0.01092588,-0.00045314,0.00034285,-0.0
 0409830,-0.19989660,0.11442955,0.07463605,-0.00053775,0.00066213,0.000
 54970,-0.00033130,-0.00017903,0.00012983,-0.00007546,-0.00007142,-0.00
 003070,0.00011414,0.00006959,0.00006379,-0.00003546,-0.00003714,-0.000
 00607,0.00003328,0.00002000,0.00002021,-0.00025171,0.00079683,-0.00051
 332,-0.00000201,0.00000710,0.00000248,-0.00000311,-0.00003726,0.000027
 03,-0.00000344,0.00000023,0.00000058,0.00000989,0.00000905,0.00000280,
 -0.00006141,-0.00001954,0.00000605,0.00008133,-0.00004434,-0.00000290,
 -0.00013038,-0.00002788,-0.00067163,-0.00011348,0.00004532,-0.00007383
 ,0.00740955,-0.00466789,-0.00324214,0.22374729,-0.00009807,0.00005446,
 -0.00002743,0.00031411,-0.00011103,-0.00017933,-0.00155516,-0.00062939
 ,0.00014838,-0.00010328,0.00002903,0.00013180,-0.00020905,0.00081627,0
 .00041384,-0.01469983,0.00718135,0.00605732,-0.00110082,-0.00013788,-0
 .00195722,0.12649562,-0.14357692,-0.06295736,-0.00346908,-0.00432522,0
 .00120534,0.00185255,0.00023220,-0.00080709,-0.00000157,0.00045730,0.0
 0138514,0.00029103,-0.00065779,-0.00073802,-0.00073655,-0.00026799,-0.
 00100493,0.00062979,0.00013260,0.00052242,0.00173501,0.00097493,0.0000
 8771,-0.00007100,0.00002610,0.00001099,0.00000855,-0.00006949,0.000035
 89,-0.00004106,0.00001544,0.00001390,-0.00002166,-0.00001695,0.0000101
 4,-0.00007356,-0.00002141,0.00001862,-0.00001450,-0.00000884,-0.000003
 64,0.00017662,0.00034579,-0.00007464,0.00000746,0.00018540,-0.00008947
 ,0.02025229,-0.01144530,-0.01140923,-0.12345550,0.14687088,-0.00011577
 ,0.00002908,0.00001562,0.00024822,-0.00031011,-0.00008158,-0.00143418,
 -0.00098897,-0.00070665,-0.00066086,0.00033289,0.00045924,-0.00091401,
 0.00070764,0.00135644,-0.01775536,0.00874429,0.00558642,0.00022092,0.0
 0024615,-0.00181797,0.08437158,-0.06276697,-0.09230227,-0.00077693,-0.
 00048143,0.00019455,0.00086442,0.00018833,-0.00011019,0.00002040,0.000
 19486,0.00029644,-0.00002824,0.00000160,-0.00020038,-0.00013446,-0.000
 06894,-0.00017482,0.00009391,0.00001099,0.00006080,0.00003179,0.000459
 68,-0.00097729,-0.00000746,0.00000886,0.00000324,-0.00000640,-0.000035
 66,0.00002533,0.00000434,-0.00000191,-0.00000124,0.00000683,0.00001336
 ,-0.00000355,-0.00003485,-0.00000632,0.00000404,0.00005123,-0.00005942
 ,0.00001642,-0.00022457,-0.00021416,-0.00040067,-0.00025887,-0.0000519
 9,-0.00003479,-0.00732012,0.00556700,0.00341332,-0.07842830,0.06620452
 ,0.09234170,-0.00006791,0.00002608,0.00000534,0.00021974,-0.00011512,0
 .00005976,-0.00030543,-0.00017586,-0.00113499,-0.00090504,-0.00098710,
 -0.00081167,-0.00372474,0.00126369,0.00104313,-0.00414069,0.00041760,-
 0.03803627,0.00201071,0.00036468,-0.00165012,-0.05111998,-0.00398020,0
 .03150280,0.00013479,-0.00004400,0.00001299,0.00004119,0.00012636,0.00
 039149,0.00024586,-0.00048182,-0.00068730,0.00001580,0.00071370,0.0002
 6891,-0.00024822,-0.00002599,-0.00017467,0.00015686,0.00001091,0.00012
 039,-0.00019092,0.00022498,-0.00019138,-0.00000562,0.00001584,-0.00000
 123,-0.00000232,-0.00002656,0.00002155,-0.00001666,-0.00000798,0.00000
 248,-0.00003241,0.00000654,0.00000506,0.00001842,-0.00000193,0.0000033
 1,-0.00026175,-0.00022061,0.00020044,-0.00011083,-0.00003607,-0.000164
 92,-0.00063980,-0.00005405,0.00010248,-0.00025095,0.00097737,0.0035471
 0,0.00128871,-0.00611233,0.02218674,0.05789119,-0.00001170,0.00000581,
 -0.00004688,0.00012143,0.00004882,-0.00000030,0.00019694,-0.00009459,0
 .00015648,-0.00014226,-0.00033021,-0.00088390,-0.00235164,0.00022609,-
 0.00027279,-0.00031877,-0.00066940,-0.01545047,0.00011261,0.00075645,-
 0.00021643,-0.00366490,-0.05564438,0.04821913,0.00026776,0.00004484,0.
 00003690,-0.00023486,0.00006631,0.00038308,0.00027017,-0.00107001,-0.0
 0119636,0.00039257,0.00064852,0.00069846,-0.00041637,-0.00012461,-0.00
 026937,0.00028716,0.00006142,0.00022663,-0.00009304,-0.00015108,0.0003
 1019,-0.00003392,0.00000942,-0.00000034,0.00001308,-0.00002612,0.00002
 234,-0.00005287,0.00002109,0.00001721,-0.00000617,-0.00001811,0.000005
 42,0.00000092,-0.00001859,0.00000606,-0.00014995,-0.00006782,0.0000728
 9,0.00002342,0.00007691,0.00009907,0.00006781,0.00041311,0.00002176,-0
 .00170772,-0.00065845,0.02934500,-0.00069159,0.00394645,-0.01772338,0.
 00812188,0.05254815,-0.00002140,0.00001548,-0.00000607,0.00006249,0.,0
 .00000414,-0.00003291,-0.00041052,-0.00009610,-0.00017287,-0.00030781,
 -0.00022629,-0.00154059,0.00108804,0.00109577,-0.00088946,-0.00103642,
 -0.01325847,0.00170353,0.00034071,0.00080719,0.01845027,0.04223144,-0.
 32742859,-0.00017236,-0.00015138,0.00000224,0.00006613,-0.00006014,-0.
 00015898,0.00008376,-0.00009154,0.00006351,-0.00010783,-0.00005494,-0.
 00005726,-0.00004920,-0.00004848,-0.00006620,0.00005554,0.00001745,0.0
 0004887,0.00011968,0.00004281,0.00013420,-0.00000290,0.00000754,-0.000
 00277,-0.00000042,-0.00000945,0.00000901,-0.00000851,0.00000205,0.0000
 0392,-0.00001368,0.00000425,0.00001424,0.00000862,-0.00000296,-0.00000
 131,-0.00011069,-0.00002011,0.00008933,-0.00000848,0.00010375,0.000110
 73,-0.00041985,0.00022838,0.00008964,0.00074199,-0.00133008,-0.0012187
 0,-0.00111943,0.00300234,-0.00696216,-0.01662142,-0.04356040,0.3470101
 2\\-0.00000013,0.00000067,0.00000031,0.00000021,0.00000165,0.00000261,
 0.00000012,0.00000136,0.00000196,-0.00000069,0.00000310,0.00000110,-0.
 00000057,0.00000224,0.00000069,0.00000069,-0.00000030,0.00000187,0.000
 00113,-0.00000045,0.00000232,0.00000133,-0.00000205,0.00000153,-0.0000
 0109,-0.00000146,-0.00000451,-0.00000074,-0.00000132,-0.00000398,0.000
 00022,-0.00000353,-0.00000301,0.00000128,-0.00000494,-0.00000155,-0.00
 000178,0.00000054,-0.00000476,-0.00000253,0.00000219,-0.00000494,-0.00
 000116,-0.00000118,-0.00000447,-0.00000105,0.00000153,-0.00000145,0.,0
 .00000076,0.00000081,0.00000045,-0.00000143,-0.00000014,0.00000117,0.0
 0000089,0.00000419,-0.00000037,0.00000377,0.00000297,-0.00000168,0.000
 00502,0.00000051,-0.00000102,0.00000275,0.00000006,0.00000186,-0.00000
 230,0.00000306,0.00000182,-0.00000176,0.00000343,0.00000061,-0.0000018
 6,-0.00000002,0.00000193,-0.00000390,0.00000140\\\@


 HE WHO LAUGHS LAST PROBABLY DIDN'T GET THE JOKE.
 Job cpu time:       0 days  0 hours 51 minutes 15.1 seconds.
 Elapsed time:       0 days  0 hours  4 minutes 17.9 seconds.
 File lengths (MBytes):  RWF=    213 Int=      0 D2E=      0 Chk=      7 Scr=      1
 Normal termination of Gaussian 16 at Fri Mar  6 14:54:04 2020.
