 Entering Gaussian System, Link 0=g16
 Input=ccn3.gjf
 Output=ccn3.log
 Initial command:
 /opt/g16/l1.exe "/scratch/mtmjea001/volumes/ccn3/Gau-3278.inp" -scrdir="/scratch/mtmjea001/volumes/ccn3/"
 Entering Link 1 = /opt/g16/l1.exe PID=      3279.
  
 Copyright (c) 1988-2019, Gaussian, Inc.  All Rights Reserved.
  
 This is part of the Gaussian(R) 16 program.  It is based on
 the Gaussian(R) 09 system (copyright 2009, Gaussian, Inc.),
 the Gaussian(R) 03 system (copyright 2003, Gaussian, Inc.),
 the Gaussian(R) 98 system (copyright 1998, Gaussian, Inc.),
 the Gaussian(R) 94 system (copyright 1995, Gaussian, Inc.),
 the Gaussian 92(TM) system (copyright 1992, Gaussian, Inc.),
 the Gaussian 90(TM) system (copyright 1990, Gaussian, Inc.),
 the Gaussian 88(TM) system (copyright 1988, Gaussian, Inc.),
 the Gaussian 86(TM) system (copyright 1986, Carnegie Mellon
 University), and the Gaussian 82(TM) system (copyright 1983,
 Carnegie Mellon University). Gaussian is a federally registered
 trademark of Gaussian, Inc.
  
 This software contains proprietary and confidential information,
 including trade secrets, belonging to Gaussian, Inc.
  
 This software is provided under written license and may be
 used, copied, transmitted, or stored only in accord with that
 written license.
  
 The following legend is applicable only to US Government
 contracts under FAR:
  
                    RESTRICTED RIGHTS LEGEND
  
 Use, reproduction and disclosure by the US Government is
 subject to restrictions as set forth in subparagraphs (a)
 and (c) of the Commercial Computer Software - Restricted
 Rights clause in FAR 52.227-19.
  
 Gaussian, Inc.
 340 Quinnipiac St., Bldg. 40, Wallingford CT 06492
  
  
 ---------------------------------------------------------------
 Warning -- This program may not be used in any manner that
 competes with the business of Gaussian, Inc. or will provide
 assistance to any competitor of Gaussian, Inc.  The licensee
 of this program is prohibited from giving any competitor of
 Gaussian, Inc. access to this program.  By using this program,
 the user acknowledges that Gaussian, Inc. is engaged in the
 business of creating and licensing software in the field of
 computational chemistry and represents and warrants to the
 licensee that it is not a competitor of Gaussian, Inc. and that
 it will not use this program in any manner prohibited above.
 ---------------------------------------------------------------
  

 Cite this work as:
 Gaussian 16, Revision C.01,
 M. J. Frisch, G. W. Trucks, H. B. Schlegel, G. E. Scuseria, 
 M. A. Robb, J. R. Cheeseman, G. Scalmani, V. Barone, 
 G. A. Petersson, H. Nakatsuji, X. Li, M. Caricato, A. V. Marenich, 
 J. Bloino, B. G. Janesko, R. Gomperts, B. Mennucci, H. P. Hratchian, 
 J. V. Ortiz, A. F. Izmaylov, J. L. Sonnenberg, D. Williams-Young, 
 F. Ding, F. Lipparini, F. Egidi, J. Goings, B. Peng, A. Petrone, 
 T. Henderson, D. Ranasinghe, V. G. Zakrzewski, J. Gao, N. Rega, 
 G. Zheng, W. Liang, M. Hada, M. Ehara, K. Toyota, R. Fukuda, 
 J. Hasegawa, M. Ishida, T. Nakajima, Y. Honda, O. Kitao, H. Nakai, 
 T. Vreven, K. Throssell, J. A. Montgomery, Jr., J. E. Peralta, 
 F. Ogliaro, M. J. Bearpark, J. J. Heyd, E. N. Brothers, K. N. Kudin, 
 V. N. Staroverov, T. A. Keith, R. Kobayashi, J. Normand, 
 K. Raghavachari, A. P. Rendell, J. C. Burant, S. S. Iyengar, 
 J. Tomasi, M. Cossi, J. M. Millam, M. Klene, C. Adamo, R. Cammi, 
 J. W. Ochterski, R. L. Martin, K. Morokuma, O. Farkas, 
 J. B. Foresman, and D. J. Fox, Gaussian, Inc., Wallingford CT, 2019.
 
 ******************************************
 Gaussian 16:  ES64L-G16RevC.01  3-Jul-2019
                10-Mar-2020 
 ******************************************
 %chk=ccn3.chk
 %mem=56Gb
 %nprocs=12
 Will use up to   12 processors via shared memory.
 Default route: test
 ----------------------------------------------------------
 #p pbepbe/def2tzvp/w06 opt scrf(cpcm,solvent=generic,read)
 ----------------------------------------------------------
 1/18=20,19=15,26=3,38=1,40=2/1,3;
 2/9=110,12=2,17=6,18=5,40=1/2;
 3/5=44,7=101,11=2,25=1,30=1,70=2103,71=1,72=-2,74=1009,82=40/1,2,3;
 4//1;
 5/5=2,38=5/2;
 6/7=2,8=2,9=2,10=2,28=1/1;
 7//1,2,3,16;
 1/18=20,19=15,26=3/3(2);
 2/9=110/2;
 99//99;
 2/9=110/2;
 3/5=44,7=101,11=2,25=1,30=1,70=2105,71=1,72=-2,74=1009,82=40/1,2,3;
 4/5=5,16=3,69=1/1;
 5/5=2,38=5/2;
 7//1,2,3,16;
 1/18=20,19=15,26=3/3(-5);
 2/9=110/2;
 6/7=2,8=2,9=2,10=2,19=2,28=1/1;
 99/9=1/99;
 Leave Link    1 at Tue Mar 10 15:44:03 2020, MaxMem=  7516192768 cpu:               0.6 elap:               0.1
 (Enter /opt/g16/l101.exe)
 ----
 ccn3
 ----
 Symbolic Z-matrix:
 Charge = -1 Multiplicity = 1
 C                     0.85702   0.05741   0.02191 
 C                    -0.43929   0.05741   0.02192 
 C                    -1.19929   0.76361   1.13281 
 N                    -1.82977   1.34945   2.05439 
 C                    -1.19929  -0.64878  -1.08898 
 N                    -1.82977  -1.23463  -2.01056 
 N                     2.11098   0.05739   0.02188 
 
 ITRead=  0  0  0  0  0  0  0
 MicOpt= -1 -1 -1 -1 -1 -1 -1
 NAtoms=      7 NQM=        7 NQMF=       0 NMMI=      0 NMMIF=      0
                NMic=       0 NMicF=      0.
                    Isotopes and Nuclear Properties:
 (Nuclear quadrupole moments (NQMom) in fm**2, nuclear magnetic moments (NMagM)
  in nuclear magnetons)

  Atom         1           2           3           4           5           6           7
 IAtWgt=          12          12          12          14          12          14          14
 AtmWgt=  12.0000000  12.0000000  12.0000000  14.0030740  12.0000000  14.0030740  14.0030740
 NucSpn=           0           0           0           2           0           2           2
 AtZEff=  -0.0000000  -0.0000000  -0.0000000  -0.0000000  -0.0000000  -0.0000000  -0.0000000
 NQMom=    0.0000000   0.0000000   0.0000000   2.0440000   0.0000000   2.0440000   2.0440000
 NMagM=    0.0000000   0.0000000   0.0000000   0.4037610   0.0000000   0.4037610   0.4037610
 AtZNuc=   6.0000000   6.0000000   6.0000000   7.0000000   6.0000000   7.0000000   7.0000000
 Leave Link  101 at Tue Mar 10 15:44:03 2020, MaxMem=  7516192768 cpu:               3.5 elap:               0.3
 (Enter /opt/g16/l103.exe)

 GradGradGradGradGradGradGradGradGradGradGradGradGradGradGradGradGradGrad
 Berny optimization.
 Initialization pass.
                           ----------------------------
                           !    Initial Parameters    !
                           ! (Angstroms and Degrees)  !
 --------------------------                            --------------------------
 ! Name  Definition              Value          Derivative Info.                !
 --------------------------------------------------------------------------------
 ! R1    R(1,2)                  1.2963         estimate D2E/DX2                !
 ! R2    R(1,7)                  1.254          estimate D2E/DX2                !
 ! R3    R(2,3)                  1.52           estimate D2E/DX2                !
 ! R4    R(2,5)                  1.52           estimate D2E/DX2                !
 ! R5    R(3,4)                  1.261          estimate D2E/DX2                !
 ! R6    R(5,6)                  1.261          estimate D2E/DX2                !
 ! A1    A(1,2,3)              120.0004         estimate D2E/DX2                !
 ! A2    A(1,2,5)              119.9996         estimate D2E/DX2                !
 ! A3    A(3,2,5)              120.0            estimate D2E/DX2                !
 ! A4    L(2,1,7,6,-1)         179.9987         estimate D2E/DX2                !
 ! A5    L(2,3,4,6,-1)         180.0001         estimate D2E/DX2                !
 ! A6    L(2,5,6,4,-1)         180.0001         estimate D2E/DX2                !
 ! A7    L(2,1,7,6,-2)         180.0004         estimate D2E/DX2                !
 ! A8    L(2,3,4,6,-2)         179.9991         estimate D2E/DX2                !
 ! A9    L(2,5,6,4,-2)         180.0006         estimate D2E/DX2                !
 ! D1    D(1,2,5,3)           -179.9991         estimate D2E/DX2                !
 --------------------------------------------------------------------------------
 Trust Radius=3.00D-01 FncErr=1.00D-07 GrdErr=1.00D-06 EigMax=2.50D+02 EigMin=1.00D-04
 Number of steps in this run=     26 maximum allowed number of steps=    100.
 GradGradGradGradGradGradGradGradGradGradGradGradGradGradGradGradGradGrad

 Leave Link  103 at Tue Mar 10 15:44:03 2020, MaxMem=  7516192768 cpu:               0.1 elap:               0.0
 (Enter /opt/g16/l202.exe)
                          Input orientation:                          
 ---------------------------------------------------------------------
 Center     Atomic      Atomic             Coordinates (Angstroms)
 Number     Number       Type             X           Y           Z
 ---------------------------------------------------------------------
      1          6           0        0.857020    0.057410    0.021910
      2          6           0       -0.439290    0.057410    0.021920
      3          6           0       -1.199290    0.763610    1.132810
      4          7           0       -1.829770    1.349450    2.054390
      5          6           0       -1.199290   -0.648780   -1.088980
      6          7           0       -1.829770   -1.234630   -2.010560
      7          7           0        2.110980    0.057390    0.021880
 ---------------------------------------------------------------------
                    Distance matrix (angstroms):
                    1          2          3          4          5
     1  C    0.000000
     2  C    1.296310   0.000000
     3  C    2.441563   1.519998   0.000000
     4  N    3.608210   2.780960   1.260961   0.000000
     5  C    2.441555   1.520001   2.632717   3.777725   0.000000
     6  N    3.608205   2.780967   3.777730   4.816772   1.260966
     7  N    1.253960   2.550270   3.562415   4.618444   3.562383
                    6          7
     6  N    0.000000
     7  N    4.618402   0.000000
 Stoichiometry    C4N3(1-)
 Framework group  C1[X(C4N3)]
 Deg. of freedom    15
 Full point group                 C1      NOp   1
 Largest Abelian subgroup         C1      NOp   1
 Largest concise Abelian subgroup C1      NOp   1
                         Standard orientation:                         
 ---------------------------------------------------------------------
 Center     Atomic      Atomic             Coordinates (Angstroms)
 Number     Number       Type             X           Y           Z
 ---------------------------------------------------------------------
      1          6           0       -0.000084    1.362020    0.000001
      2          6           0        0.000006    0.065710   -0.000004
      3          6           0        1.316410   -0.694207    0.000004
      4          7           0        2.408475   -1.324618   -0.000002
      5          6           0       -1.316306   -0.694372    0.000002
      6          7           0       -2.408297   -1.324921   -0.000001
      7          7           0       -0.000199    2.615980   -0.000000
 ---------------------------------------------------------------------
 Rotational constants (GHZ):           2.8255389           2.4769613           1.3198963
 Leave Link  202 at Tue Mar 10 15:44:03 2020, MaxMem=  7516192768 cpu:               0.1 elap:               0.0
 (Enter /opt/g16/l301.exe)
 Standard basis: def2TZVP (5D, 7F)
 Ernie: Thresh=  0.10000D-02 Tol=  0.10000D-05 Strict=F.
 There are   252 symmetry adapted cartesian basis functions of A   symmetry.
 There are   217 symmetry adapted basis functions of A   symmetry.
   217 basis functions,   357 primitive gaussians,   252 cartesian basis functions
    23 alpha electrons       23 beta electrons
       nuclear repulsion energy       193.4536667787 Hartrees.
 IExCor= 1009 DFT=T Ex=PBE Corr=PBE ExCW=0 ScaHFX=  0.000000
 ScaDFX=  1.000000  1.000000  1.000000  1.000000 ScalE2=  1.000000  1.000000
 IRadAn=      5 IRanWt=     -1 IRanGd=            0 ICorTp=0 IEmpDi=  4
 NAtoms=    7 NActive=    7 NUniq=    7 SFac= 1.00D+00 NAtFMM=   60 NAOKFM=F Big=F
 Integral buffers will be    131072 words long.
 Raffenetti 2 integral format.
 Two-electron integral symmetry is turned on.
 Standard density basis: W06 (5D, 7F)
   343 Density fitting functions
 There are   343 symmetry adapted density basis functions of A   symmetry.
 Using the following non-standard input for PCM:
 eps=999.0
 --- end of non-standard input.
 ------------------------------------------------------------------------------
 Polarizable Continuum Model (PCM)
 =================================
 Model                : C-PCM.
 Atomic radii         : UFF (Universal Force Field).
 Polarization charges : Total charges.
 Charge compensation  : None.
 Solution method      : On-the-fly selection.
 Cavity type          : Scaled VdW (van der Waals Surface) (Alpha=1.100).
 Cavity algorithm     : GePol (No added spheres)
                        Default sphere list used, NSphG=    7.
                        Lebedev-Laikov grids with approx.  5.0 points / Ang**2.
                        Smoothing algorithm: York/Karplus (Gamma=1.0000).
                        Polarization charges: spherical gaussians, with
                                              point-specific exponents (IZeta= 3).
                        Self-potential: point-specific (ISelfS= 7).
                        Self-field    : sphere-specific E.n sum rule (ISelfD= 2).
 1st derivatives      : Analytical E(r).r(x)/FMM algorithm (CHGder, D1EAlg=3).
                        Cavity 1st derivative terms included.
 Solvent              : Generic,
                        Eps                           = 999.000000
                        Eps(infinity)                 =   0.000000
                        RSolv                         =   0.000000 Ang.
                        Molar volume                  =   0.000000 cm**3/mol
                        Thermal expansion coefficient =   0.000000 K**-1
                        Absolute temperature          = 298.150000 K
                        Numeral density               =   0.000000 Ang**-3
                        Hydrogen bond acidity         =   0.000000
                        Hydrogen bond basicity        =   0.000000
                        Surface tension at interface  =   0.000000 (cal/mol)*Ang**-2
                        Carbon aromaticity            =   0.000000
                        Electronegative halogenicity  =   0.000000
 ------------------------------------------------------------------------------
 Spheres list:
 ISph  on   Nord     Re0    Alpha      Xe            Ye            Ze
    1   C      1    1.9255  1.100     -0.000084      1.362020      0.000001
    2   C      2    1.9255  1.100      0.000006      0.065710     -0.000004
    3   C      3    1.9255  1.100      1.316410     -0.694207      0.000004
    4   N      4    1.8300  1.100      2.408475     -1.324618     -0.000002
    5   C      5    1.9255  1.100     -1.316306     -0.694372      0.000002
    6   N      6    1.8300  1.100     -2.408297     -1.324921     -0.000001
    7   N      7    1.8300  1.100     -0.000199      2.615980     -0.000000
 ------------------------------------------------------------------------------
 GePol: Number of generator spheres                  =       7
 GePol: Total number of spheres                      =       7
 GePol: Number of exposed spheres                    =       7 (100.00%)
 GePol: Number of points                             =    1049
 GePol: Average weight of points                     =       0.15
 GePol: Minimum weight of points                     =   0.70D-08
 GePol: Maximum weight of points                     =    0.20577
 GePol: Number of points with low weight             =      32
 GePol: Fraction of low-weight points (<1% of avg)   =       3.05%
 GePol: Cavity surface area                          =    153.910 Ang**2
 GePol: Cavity volume                                =    139.268 Ang**3
 Leave Link  301 at Tue Mar 10 15:44:03 2020, MaxMem=  7516192768 cpu:               0.8 elap:               0.1
 (Enter /opt/g16/l302.exe)
 NPDir=0 NMtPBC=     1 NCelOv=     1 NCel=       1 NClECP=     1 NCelD=      1
         NCelK=      1 NCelE2=     1 NClLst=     1 CellRange=     0.0.
 One-electron integrals computed using PRISM.
 One-electron integral symmetry used in STVInt
   1 Symmetry operations used in ECPInt.
 ECPInt:  NShTT=    3003 NPrTT=   10024 LenC2=    2902 LenP2D=    7649.
 LDataN:  DoStor=T MaxTD1= 6 Len=  172
 NBasis=   217 RedAO= T EigKep=  4.33D-05  NBF=   217
 NBsUse=   217 1.00D-06 EigRej= -1.00D+00 NBFU=   217
 NBasis=      217 NBas6D=      252 NTT=       23653   NTT6D=    31878
 NDBShl=      105 NDBF=        343 NDBF6D=      427  NNucDB=        0
 IDenFi=        2 ISolve=        0 FullAP=F BlkAPC=T NucTyp=        0
 TolInv= 1.00D-06 TolIt=  1.00D-10 IR12=0.
 FoFCou: FMM=F IPFlag=           0 FMFlag=           0 FMFlg1=           0
         NFxFlg=           0 DoJE=F BraDBF=T KetDBF=T FulRan=T
         wScrn=  0.000000 ICntrl=       600 IOpCl=  3 I1Cent=           6 NGrid=           0
         NMat0=    1 NMatS0=    427 NMatT0=    0 NMatD0=    1 NMtDS0=    0 NMtDT0=    0
 Petite list used in FoFCou.
 DBF EigKep=  6.81D-06 EigRej= -1.00D+00
 NDBF=    343  NBFD=   343
 NRank=   343 NBFDU=   343
 S*AI*S=  6.69793978774    
 Precomputing XC quadrature grid using
 IXCGrd= 4 IRadAn=           5 IRanWt=          -1 IRanGd=           0 AccXCQ= 0.00D+00.
 Generated NRdTot=       0 NPtTot=           0 NUsed=           0 NTot=          32
 NSgBfM=   250   250   250   250   250 MxSgAt=     7 MxSgA2=     7.
 Leave Link  302 at Tue Mar 10 15:44:04 2020, MaxMem=  7516192768 cpu:               3.9 elap:               0.4
 (Enter /opt/g16/l303.exe)
 DipDrv:  MaxL=1.
 Leave Link  303 at Tue Mar 10 15:44:04 2020, MaxMem=  7516192768 cpu:               0.3 elap:               0.0
 (Enter /opt/g16/l401.exe)
 ExpMin= 9.52D-02 ExpMax= 1.97D+04 ExpMxC= 6.73D+02 IAcc=3 IRadAn=         5 AccDes= 0.00D+00
 Harris functional with IExCor= 1009 and IRadAn=       5 diagonalized for initial guess.
 HarFok:  IExCor= 1009 AccDes= 0.00D+00 IRadAn=         5 IDoV= 1 UseB2=F ITyADJ=14
 ICtDFT=  3500011 ScaDFX=  1.000000  1.000000  1.000000  1.000000
 FoFCou: FMM=F IPFlag=           0 FMFlag=      100000 FMFlg1=           0
         NFxFlg=           0 DoJE=T BraDBF=F KetDBF=T FulRan=T
         wScrn=  0.000000 ICntrl=       500 IOpCl=  0 I1Cent=   200000004 NGrid=           0
         NMat0=    1 NMatS0=      1 NMatT0=    0 NMatD0=    1 NMtDS0=    0 NMtDT0=    0
 Petite list used in FoFCou.
 Harris En= -316.530715205408    
 JPrj=0 DoOrth=F DoCkMO=F.
 Leave Link  401 at Tue Mar 10 15:44:04 2020, MaxMem=  7516192768 cpu:               5.3 elap:               0.5
 (Enter /opt/g16/l502.exe)
 Density fitting will be used, IDenFit= 2 NucTyp=  0.
 Integral symmetry usage will be decided dynamically.
 Closed shell SCF:
 Using DIIS extrapolation, IDIIS=  1040.
 NGot=  7516192768 LenX=  7516060295 LenY=  7515996350
 Requested convergence on RMS density matrix=1.00D-08 within 128 cycles.
 Requested convergence on MAX density matrix=1.00D-06.
 Requested convergence on             energy=1.00D-06.
 No special actions if energy rises.
 Fock matrices will be formed incrementally for  20 cycles.

 Cycle   1  Pass 1  IDiag  1:
 FoFCou: FMM=F IPFlag=           0 FMFlag=      100000 FMFlg1=           0
         NFxFlg=           0 DoJE=T BraDBF=T KetDBF=F FulRan=T
         wScrn=  0.000000 ICntrl=       500 IOpCl=  0 I1Cent=           5 NGrid=           0
         NMat0=    1 NMatS0=      1 NMatT0=    0 NMatD0=    1 NMtDS0=    0 NMtDT0=    0
 Symmetry not used in FoFCou.
 FoFJK:  IHMeth= 1 ICntrl=     500 DoSepK=F KAlg= 0 I1Cent=           4 FoldK=F
 IRaf= 940000000 NMat=       1 IRICut=       1 DoRegI=T DoRafI=F ISym2E= 0 IDoP0=0 IntGTp=1.
 Inv3:  Mode=1 IEnd=     3301203.
 Iteration    1 A*A^-1 deviation from unit magnitude is 3.55D-15 for    230.
 Iteration    1 A*A^-1 deviation from orthogonality  is 2.01D-15 for    958    720.
 Iteration    1 A^-1*A deviation from unit magnitude is 3.55D-15 for    616.
 Iteration    1 A^-1*A deviation from orthogonality  is 1.33D-15 for    728    606.
 E= -316.377010422042    
 DIIS: error= 3.03D-02 at cycle   1 NSaved=   1.
 NSaved= 1 IEnMin= 1 EnMin= -316.377010422042     IErMin= 1 ErrMin= 3.03D-02
 ErrMax= 3.03D-02  0.00D+00 EMaxC= 1.00D-01 BMatC= 1.16D-01 BMatP= 1.16D-01
 IDIUse=3 WtCom= 6.97D-01 WtEn= 3.03D-01
 Coeff-Com:  0.100D+01
 Coeff-En:   0.100D+01
 Coeff:      0.100D+01
 Gap=     0.108 Goal=   None    Shift=    0.000
 GapD=    0.108 DampG=1.000 DampE=0.500 DampFc=0.5000 IDamp=-1.
 Damping current iteration by 5.00D-01
 RMSDP=1.33D-02 MaxDP=7.51D-01              OVMax= 2.56D-01

 Cycle   2  Pass 1  IDiag  1:
 RMSU=  6.64D-03    CP:  9.89D-01
 E= -316.308056343048     Delta-E=        0.068954078994 Rises=F Damp=T
 DIIS: error= 3.03D-02 at cycle   2 NSaved=   2.
 NSaved= 2 IEnMin= 1 EnMin= -316.377010422042     IErMin= 2 ErrMin= 3.03D-02
 ErrMax= 3.03D-02  0.00D+00 EMaxC= 1.00D-01 BMatC= 1.07D-01 BMatP= 1.16D-01
 IDIUse=3 WtCom= 6.97D-01 WtEn= 3.03D-01
 Coeff-Com:  0.486D+00 0.514D+00
 Coeff-En:   0.650D+00 0.350D+00
 Coeff:      0.536D+00 0.464D+00
 Gap=     0.108 Goal=   None    Shift=    0.000
 RMSDP=2.55D-03 MaxDP=1.46D-01 DE= 6.90D-02 OVMax= 2.32D-01

 Cycle   3  Pass 1  IDiag  1:
 RMSU=  2.24D-03    CP:  9.80D-01  8.18D-01
 E= -316.436024994838     Delta-E=       -0.127968651789 Rises=F Damp=F
 DIIS: error= 1.81D-02 at cycle   3 NSaved=   3.
 NSaved= 3 IEnMin= 3 EnMin= -316.436024994838     IErMin= 3 ErrMin= 1.81D-02
 ErrMax= 1.81D-02  0.00D+00 EMaxC= 1.00D-01 BMatC= 3.93D-02 BMatP= 1.07D-01
 IDIUse=3 WtCom= 8.19D-01 WtEn= 1.81D-01
 EnCoef did     2 forward-backward iterations
 Coeff-Com:  0.205D+00 0.335D+00 0.460D+00
 Coeff-En:   0.113D+00 0.124D+00 0.763D+00
 Coeff:      0.188D+00 0.297D+00 0.515D+00
 Gap=     0.132 Goal=   None    Shift=    0.000
 RMSDP=1.89D-03 MaxDP=7.42D-02 DE=-1.28D-01 OVMax= 9.68D-02

 Cycle   4  Pass 1  IDiag  1:
 RMSU=  1.10D-03    CP:  9.88D-01  5.99D-01  7.83D-01
 E= -316.463228456099     Delta-E=       -0.027203461261 Rises=F Damp=F
 DIIS: error= 1.35D-02 at cycle   4 NSaved=   4.
 NSaved= 4 IEnMin= 4 EnMin= -316.463228456099     IErMin= 4 ErrMin= 1.35D-02
 ErrMax= 1.35D-02  0.00D+00 EMaxC= 1.00D-01 BMatC= 1.63D-02 BMatP= 3.93D-02
 IDIUse=3 WtCom= 8.65D-01 WtEn= 1.35D-01
 Coeff-Com:  0.998D-01 0.578D-01 0.355D+00 0.488D+00
 Coeff-En:   0.000D+00 0.000D+00 0.323D+00 0.677D+00
 Coeff:      0.863D-01 0.500D-01 0.350D+00 0.513D+00
 Gap=     0.122 Goal=   None    Shift=    0.000
 RMSDP=4.95D-04 MaxDP=1.22D-02 DE=-2.72D-02 OVMax= 4.36D-02

 Cycle   5  Pass 1  IDiag  1:
 RMSU=  2.40D-04    CP:  9.87D-01  5.88D-01  8.13D-01  6.16D-01
 E= -316.478416597442     Delta-E=       -0.015188141343 Rises=F Damp=F
 DIIS: error= 1.93D-03 at cycle   5 NSaved=   5.
 NSaved= 5 IEnMin= 5 EnMin= -316.478416597442     IErMin= 5 ErrMin= 1.93D-03
 ErrMax= 1.93D-03  0.00D+00 EMaxC= 1.00D-01 BMatC= 7.21D-04 BMatP= 1.63D-02
 IDIUse=3 WtCom= 9.81D-01 WtEn= 1.93D-02
 Coeff-Com:  0.276D-01-0.958D-02 0.152D+00 0.316D+00 0.513D+00
 Coeff-En:   0.000D+00 0.000D+00 0.000D+00 0.457D-02 0.995D+00
 Coeff:      0.271D-01-0.939D-02 0.149D+00 0.310D+00 0.523D+00
 Gap=     0.122 Goal=   None    Shift=    0.000
 RMSDP=2.13D-04 MaxDP=9.29D-03 DE=-1.52D-02 OVMax= 8.04D-03

 Cycle   6  Pass 1  IDiag  1:
 RMSU=  6.82D-05    CP:  9.86D-01  6.16D-01  8.28D-01  6.30D-01  7.24D-01
 E= -316.478954805486     Delta-E=       -0.000538208044 Rises=F Damp=F
 DIIS: error= 1.17D-03 at cycle   6 NSaved=   6.
 NSaved= 6 IEnMin= 6 EnMin= -316.478954805486     IErMin= 6 ErrMin= 1.17D-03
 ErrMax= 1.17D-03  0.00D+00 EMaxC= 1.00D-01 BMatC= 1.64D-04 BMatP= 7.21D-04
 IDIUse=3 WtCom= 9.88D-01 WtEn= 1.17D-02
 Coeff-Com:  0.178D-01-0.942D-02 0.107D+00 0.227D+00 0.412D+00 0.246D+00
 Coeff-En:   0.000D+00 0.000D+00 0.000D+00 0.000D+00 0.137D+00 0.863D+00
 Coeff:      0.176D-01-0.931D-02 0.105D+00 0.224D+00 0.409D+00 0.253D+00
 Gap=     0.122 Goal=   None    Shift=    0.000
 RMSDP=8.67D-05 MaxDP=3.90D-03 DE=-5.38D-04 OVMax= 5.11D-03

 Cycle   7  Pass 1  IDiag  1:
 RMSU=  2.61D-05    CP:  9.86D-01  6.09D-01  8.34D-01  6.56D-01  5.88D-01
                    CP:  3.23D-01
 E= -316.479100268560     Delta-E=       -0.000145463074 Rises=F Damp=F
 DIIS: error= 1.58D-04 at cycle   7 NSaved=   7.
 NSaved= 7 IEnMin= 7 EnMin= -316.479100268560     IErMin= 7 ErrMin= 1.58D-04
 ErrMax= 1.58D-04  0.00D+00 EMaxC= 1.00D-01 BMatC= 2.83D-06 BMatP= 1.64D-04
 IDIUse=3 WtCom= 9.98D-01 WtEn= 1.58D-03
 EnCoef did     1 forward-backward iterations
 Coeff-Com:  0.726D-03-0.558D-03 0.843D-02 0.143D-01 0.463D-01 0.125D+00
 Coeff-Com:  0.806D+00
 Coeff-En:   0.000D+00 0.000D+00 0.000D+00 0.000D+00 0.000D+00 0.990D-03
 Coeff-En:   0.999D+00
 Coeff:      0.725D-03-0.558D-03 0.842D-02 0.143D-01 0.462D-01 0.125D+00
 Coeff:      0.806D+00
 Gap=     0.122 Goal=   None    Shift=    0.000
 RMSDP=1.75D-05 MaxDP=7.95D-04 DE=-1.45D-04 OVMax= 1.08D-03

 Cycle   8  Pass 1  IDiag  1:
 RMSU=  4.17D-06    CP:  9.86D-01  6.10D-01  8.34D-01  6.50D-01  6.17D-01
                    CP:  4.15D-01  8.41D-01
 E= -316.479103022914     Delta-E=       -0.000002754354 Rises=F Damp=F
 DIIS: error= 3.25D-05 at cycle   8 NSaved=   8.
 NSaved= 8 IEnMin= 8 EnMin= -316.479103022914     IErMin= 8 ErrMin= 3.25D-05
 ErrMax= 3.25D-05  0.00D+00 EMaxC= 1.00D-01 BMatC= 1.50D-07 BMatP= 2.83D-06
 IDIUse=1 WtCom= 1.00D+00 WtEn= 0.00D+00
 Coeff-Com:  0.136D-04-0.761D-04 0.205D-02 0.201D-02 0.143D-01 0.585D-01
 Coeff-Com:  0.436D+00 0.487D+00
 Coeff:      0.136D-04-0.761D-04 0.205D-02 0.201D-02 0.143D-01 0.585D-01
 Coeff:      0.436D+00 0.487D+00
 Gap=     0.122 Goal=   None    Shift=    0.000
 RMSDP=2.96D-06 MaxDP=1.18D-04 DE=-2.75D-06 OVMax= 2.08D-04

 Cycle   9  Pass 1  IDiag  1:
 RMSU=  1.06D-06    CP:  9.86D-01  6.10D-01  8.34D-01  6.51D-01  6.12D-01
                    CP:  4.04D-01  8.78D-01  7.67D-01
 E= -316.479103172126     Delta-E=       -0.000000149212 Rises=F Damp=F
 DIIS: error= 8.12D-06 at cycle   9 NSaved=   9.
 NSaved= 9 IEnMin= 9 EnMin= -316.479103172126     IErMin= 9 ErrMin= 8.12D-06
 ErrMax= 8.12D-06  0.00D+00 EMaxC= 1.00D-01 BMatC= 1.00D-08 BMatP= 1.50D-07
 IDIUse=1 WtCom= 1.00D+00 WtEn= 0.00D+00
 Coeff-Com: -0.285D-04-0.316D-04 0.293D-03-0.255D-03 0.254D-02 0.161D-01
 Coeff-Com:  0.134D+00 0.244D+00 0.604D+00
 Coeff:     -0.285D-04-0.316D-04 0.293D-03-0.255D-03 0.254D-02 0.161D-01
 Coeff:      0.134D+00 0.244D+00 0.604D+00
 Gap=     0.122 Goal=   None    Shift=    0.000
 RMSDP=4.20D-07 MaxDP=1.22D-05 DE=-1.49D-07 OVMax= 2.19D-05

 Cycle  10  Pass 1  IDiag  1:
 RMSU=  2.51D-07    CP:  9.86D-01  6.10D-01  8.34D-01  6.51D-01  6.12D-01
                    CP:  4.05D-01  8.78D-01  7.71D-01  7.76D-01
 E= -316.479103181137     Delta-E=       -0.000000009011 Rises=F Damp=F
 DIIS: error= 7.10D-07 at cycle  10 NSaved=  10.
 NSaved=10 IEnMin=10 EnMin= -316.479103181137     IErMin=10 ErrMin= 7.10D-07
 ErrMax= 7.10D-07  0.00D+00 EMaxC= 1.00D-01 BMatC= 8.01D-11 BMatP= 1.00D-08
 IDIUse=1 WtCom= 1.00D+00 WtEn= 0.00D+00
 Coeff-Com: -0.256D-05-0.121D-04 0.188D-04-0.128D-03 0.190D-03 0.219D-02
 Coeff-Com:  0.202D-01 0.454D-01 0.137D+00 0.795D+00
 Coeff:     -0.256D-05-0.121D-04 0.188D-04-0.128D-03 0.190D-03 0.219D-02
 Coeff:      0.202D-01 0.454D-01 0.137D+00 0.795D+00
 Gap=     0.122 Goal=   None    Shift=    0.000
 RMSDP=5.48D-08 MaxDP=1.45D-06 DE=-9.01D-09 OVMax= 2.58D-06

 Cycle  11  Pass 1  IDiag  1:
 RMSU=  3.72D-08    CP:  9.86D-01  6.10D-01  8.34D-01  6.51D-01  6.12D-01
                    CP:  4.05D-01  8.78D-01  7.75D-01  7.79D-01  9.31D-01
 E= -316.479103181202     Delta-E=       -0.000000000064 Rises=F Damp=F
 DIIS: error= 2.43D-07 at cycle  11 NSaved=  11.
 NSaved=11 IEnMin=11 EnMin= -316.479103181202     IErMin=11 ErrMin= 2.43D-07
 ErrMax= 2.43D-07  0.00D+00 EMaxC= 1.00D-01 BMatC= 1.04D-11 BMatP= 8.01D-11
 IDIUse=1 WtCom= 1.00D+00 WtEn= 0.00D+00
 Coeff-Com: -0.723D-06-0.641D-05 0.603D-05-0.665D-04 0.664D-04 0.947D-03
 Coeff-Com:  0.897D-02 0.211D-01 0.656D-01 0.445D+00 0.458D+00
 Coeff:     -0.723D-06-0.641D-05 0.603D-05-0.665D-04 0.664D-04 0.947D-03
 Coeff:      0.897D-02 0.211D-01 0.656D-01 0.445D+00 0.458D+00
 Gap=     0.122 Goal=   None    Shift=    0.000
 RMSDP=2.41D-08 MaxDP=5.47D-07 DE=-6.42D-11 OVMax= 1.67D-06

 Cycle  12  Pass 1  IDiag  1:
 RMSU=  2.11D-08    CP:  9.86D-01  6.10D-01  8.34D-01  6.51D-01  6.12D-01
                    CP:  4.05D-01  8.78D-01  7.75D-01  7.80D-01  9.40D-01
                    CP:  7.10D-01
 E= -316.479103181197     Delta-E=        0.000000000004 Rises=F Damp=F
 DIIS: error= 2.85D-07 at cycle  12 NSaved=  12.
 NSaved=12 IEnMin=11 EnMin= -316.479103181202     IErMin=11 ErrMin= 2.43D-07
 ErrMax= 2.85D-07  0.00D+00 EMaxC= 1.00D-01 BMatC= 1.32D-11 BMatP= 1.04D-11
 IDIUse=1 WtCom= 1.00D+00 WtEn= 0.00D+00
 Coeff-Com:  0.381D-06-0.158D-05-0.138D-05-0.148D-04-0.861D-05 0.648D-04
 Coeff-Com:  0.819D-03 0.283D-02 0.101D-01 0.127D+00 0.482D+00 0.377D+00
 Coeff:      0.381D-06-0.158D-05-0.138D-05-0.148D-04-0.861D-05 0.648D-04
 Coeff:      0.819D-03 0.283D-02 0.101D-01 0.127D+00 0.482D+00 0.377D+00
 Gap=     0.122 Goal=   None    Shift=    0.000
 RMSDP=1.35D-08 MaxDP=3.07D-07 DE= 4.38D-12 OVMax= 9.15D-07

 Cycle  13  Pass 1  IDiag  1:
 RMSU=  3.43D-09    CP:  9.86D-01  6.10D-01  8.34D-01  6.51D-01  6.12D-01
                    CP:  4.05D-01  8.79D-01  7.75D-01  7.81D-01  9.45D-01
                    CP:  8.01D-01  4.23D-01
 E= -316.479103181210     Delta-E=       -0.000000000013 Rises=F Damp=F
 DIIS: error= 1.02D-08 at cycle  13 NSaved=  13.
 NSaved=13 IEnMin=13 EnMin= -316.479103181210     IErMin=13 ErrMin= 1.02D-08
 ErrMax= 1.02D-08  0.00D+00 EMaxC= 1.00D-01 BMatC= 1.47D-14 BMatP= 1.04D-11
 IDIUse=1 WtCom= 1.00D+00 WtEn= 0.00D+00
 Coeff-Com:  0.398D-07-0.878D-07-0.400D-06-0.159D-05-0.188D-05-0.519D-05
 Coeff-Com: -0.212D-04 0.156D-03 0.735D-03 0.177D-01 0.975D-01 0.861D-01
 Coeff-Com:  0.798D+00
 Coeff:      0.398D-07-0.878D-07-0.400D-06-0.159D-05-0.188D-05-0.519D-05
 Coeff:     -0.212D-04 0.156D-03 0.735D-03 0.177D-01 0.975D-01 0.861D-01
 Coeff:      0.798D+00
 Gap=     0.122 Goal=   None    Shift=    0.000
 RMSDP=7.95D-10 MaxDP=1.50D-08 DE=-1.28D-11 OVMax= 4.73D-08

 Error on total polarization charges =  0.01595
 SCF Done:  E(RPBE-PBE) =  -316.479103181     A.U. after   13 cycles
            NFock= 13  Conv=0.79D-09     -V/T= 2.0075
 KE= 3.141253751156D+02 PE=-1.132788724245D+03 EE= 3.087305791700D+02
 Leave Link  502 at Tue Mar 10 15:44:21 2020, MaxMem=  7516192768 cpu:             195.8 elap:              16.5
 (Enter /opt/g16/l601.exe)
 Copying SCF densities to generalized density rwf, IOpCl= 0 IROHF=0.

 **********************************************************************

            Population analysis using the SCF Density.

 **********************************************************************

 Orbital symmetries:
       Occupied  (A) (A) (A) (A) (A) (A) (A) (A) (A) (A) (A) (A)
                 (A) (A) (A) (A) (A) (A) (A) (A) (A) (A) (A)
       Virtual   (A) (A) (A) (A) (A) (A) (A) (A) (A) (A) (A) (A)
                 (A) (A) (A) (A) (A) (A) (A) (A) (A) (A) (A) (A)
                 (A) (A) (A) (A) (A) (A) (A) (A) (A) (A) (A) (A)
                 (A) (A) (A) (A) (A) (A) (A) (A) (A) (A) (A) (A)
                 (A) (A) (A) (A) (A) (A) (A) (A) (A) (A) (A) (A)
                 (A) (A) (A) (A) (A) (A) (A) (A) (A) (A) (A) (A)
                 (A) (A) (A) (A) (A) (A) (A) (A) (A) (A) (A) (A)
                 (A) (A) (A) (A) (A) (A) (A) (A) (A) (A) (A) (A)
                 (A) (A) (A) (A) (A) (A) (A) (A) (A) (A) (A) (A)
                 (A) (A) (A) (A) (A) (A) (A) (A) (A) (A) (A) (A)
                 (A) (A) (A) (A) (A) (A) (A) (A) (A) (A) (A) (A)
                 (A) (A) (A) (A) (A) (A) (A) (A) (A) (A) (A) (A)
                 (A) (A) (A) (A) (A) (A) (A) (A) (A) (A) (A) (A)
                 (A) (A) (A) (A) (A) (A) (A) (A) (A) (A) (A) (A)
                 (A) (A) (A) (A) (A) (A) (A) (A) (A) (A) (A) (A)
                 (A) (A) (A) (A) (A) (A) (A) (A) (A) (A) (A) (A)
                 (A) (A)
 The electronic state is 1-A.
 Alpha  occ. eigenvalues --  -14.00118 -14.00117 -13.97878  -9.95992  -9.95989
 Alpha  occ. eigenvalues --   -9.95296  -9.92699  -0.80820  -0.79040  -0.78458
 Alpha  occ. eigenvalues --   -0.71601  -0.53456  -0.52124  -0.35457  -0.33732
 Alpha  occ. eigenvalues --   -0.33548  -0.31963  -0.29573  -0.29201  -0.29160
 Alpha  occ. eigenvalues --   -0.28602  -0.27570  -0.19000
 Alpha virt. eigenvalues --   -0.06818  -0.06469  -0.03573  -0.02681   0.00931
 Alpha virt. eigenvalues --    0.01023   0.07848   0.08336   0.10678   0.13038
 Alpha virt. eigenvalues --    0.17506   0.18393   0.18936   0.22447   0.24010
 Alpha virt. eigenvalues --    0.24021   0.24614   0.25869   0.28397   0.29478
 Alpha virt. eigenvalues --    0.30732   0.31712   0.35713   0.38987   0.40978
 Alpha virt. eigenvalues --    0.41714   0.41743   0.42999   0.44568   0.44577
 Alpha virt. eigenvalues --    0.47919   0.51181   0.52964   0.55858   0.56573
 Alpha virt. eigenvalues --    0.56863   0.58655   0.60900   0.62928   0.66199
 Alpha virt. eigenvalues --    0.67168   0.68261   0.71564   0.75572   0.77400
 Alpha virt. eigenvalues --    0.78047   0.79984   0.80675   0.93505   0.95363
 Alpha virt. eigenvalues --    1.01402   1.02098   1.02844   1.08043   1.09745
 Alpha virt. eigenvalues --    1.10806   1.16361   1.16529   1.16858   1.21462
 Alpha virt. eigenvalues --    1.24502   1.25450   1.26395   1.27706   1.28707
 Alpha virt. eigenvalues --    1.31830   1.32139   1.32726   1.43711   1.44974
 Alpha virt. eigenvalues --    1.45835   1.45899   1.46369   1.51690   1.58340
 Alpha virt. eigenvalues --    1.58504   1.69670   1.69771   1.70294   1.72787
 Alpha virt. eigenvalues --    1.76705   1.78618   1.81548   1.88024   1.93175
 Alpha virt. eigenvalues --    1.96478   2.03417   2.03844   2.15497   2.20602
 Alpha virt. eigenvalues --    2.21607   2.22412   2.24051   2.26104   2.28231
 Alpha virt. eigenvalues --    2.28285   2.35678   2.47926   2.53467   2.55455
 Alpha virt. eigenvalues --    2.58064   2.58511   2.59243   2.59374   2.60888
 Alpha virt. eigenvalues --    2.62729   2.63624   2.67425   2.68705   2.81542
 Alpha virt. eigenvalues --    2.82468   2.83354   2.84284   2.87100   2.87343
 Alpha virt. eigenvalues --    2.87759   2.88063   2.94371   2.94948   2.98519
 Alpha virt. eigenvalues --    3.01461   3.04250   3.08666   3.09222   3.09442
 Alpha virt. eigenvalues --    3.10359   3.12291   3.13384   3.15342   3.21908
 Alpha virt. eigenvalues --    3.21962   3.26652   3.32761   3.38639   3.45103
 Alpha virt. eigenvalues --    3.49408   3.51250   3.51997   3.67432   3.77864
 Alpha virt. eigenvalues --    3.79106   3.83153   3.84615   3.85031   3.85137
 Alpha virt. eigenvalues --    3.85328   3.86854   3.90761   3.92378   3.96998
 Alpha virt. eigenvalues --    4.14798   4.15456   4.23712   4.26914   4.33676
 Alpha virt. eigenvalues --    4.36704   4.37686   4.42278   4.42729   4.44956
 Alpha virt. eigenvalues --    4.46548   4.49498   4.50683   4.51471   4.52195
 Alpha virt. eigenvalues --    4.56798   4.60487   4.76595   4.90410   4.92197
 Alpha virt. eigenvalues --    4.92209   5.00530   5.01162   5.07551   5.12404
 Alpha virt. eigenvalues --    5.28656   5.33038   5.37772   5.40466   5.41169
 Alpha virt. eigenvalues --    5.45899   5.47507   5.49423   5.64662   5.65222
 Alpha virt. eigenvalues --    5.73223   5.79403  22.44574  22.50719  22.86451
 Alpha virt. eigenvalues --   23.32282  31.63904  31.69168  31.71867
          Condensed to atoms (all electrons):
               1          2          3          4          5          6
     1  C    5.458153  -0.182471  -0.064541  -0.004234  -0.064553  -0.004234
     2  C   -0.182471   5.961331   0.197284  -0.095033   0.197297  -0.095031
     3  C   -0.064541   0.197284   5.115193   0.959999  -0.050210  -0.002095
     4  N   -0.004234  -0.095033   0.959999   6.355568  -0.002094  -0.000140
     5  C   -0.064553   0.197297  -0.050210  -0.002094   5.115192   0.959994
     6  N   -0.004234  -0.095031  -0.002095  -0.000140   0.959994   6.355578
     7  N    1.066142  -0.165458  -0.002967  -0.000196  -0.002969  -0.000196
               7
     1  C    1.066142
     2  C   -0.165458
     3  C   -0.002967
     4  N   -0.000196
     5  C   -0.002969
     6  N   -0.000196
     7  N    6.350400
 Mulliken charges:
               1
     1  C   -0.204261
     2  C    0.182081
     3  C   -0.152663
     4  N   -0.213870
     5  C   -0.152656
     6  N   -0.213876
     7  N   -0.244755
 Sum of Mulliken charges =  -1.00000
 Mulliken charges with hydrogens summed into heavy atoms:
               1
     1  C   -0.204261
     2  C    0.182081
     3  C   -0.152663
     4  N   -0.213870
     5  C   -0.152656
     6  N   -0.213876
     7  N   -0.244755
 Electronic spatial extent (au):  <R**2>=            811.7345
 Charge=             -1.0000 electrons
 Dipole moment (field-independent basis, Debye):
    X=              0.0001    Y=             -0.9122    Z=              0.0000  Tot=              0.9122
 Quadrupole moment (field-independent basis, Debye-Ang):
   XX=            -64.8595   YY=            -65.3851   ZZ=            -42.1716
   XY=              0.0003   XZ=              0.0000   YZ=             -0.0000
 Traceless Quadrupole moment (field-independent basis, Debye-Ang):
   XX=             -7.3874   YY=             -7.9131   ZZ=             15.3004
   XY=              0.0003   XZ=              0.0000   YZ=             -0.0000
 Octapole moment (field-independent basis, Debye-Ang**2):
  XXX=             -0.0072  YYY=            -40.4594  ZZZ=              0.0000  XYY=              0.0077
  XXY=             35.8039  XXZ=             -0.0000  XZZ=              0.0001  YZZ=             -0.5792
  YYZ=             -0.0000  XYZ=             -0.0000
 Hexadecapole moment (field-independent basis, Debye-Ang**3):
 XXXX=           -773.6635 YYYY=           -700.7633 ZZZZ=            -47.1066 XXXY=             -0.0001
 XXXZ=              0.0000 YYYX=              0.0026 YYYZ=             -0.0000 ZZZX=             -0.0000
 ZZZY=              0.0000 XXYY=           -242.0135 XXZZ=           -110.9571 YYZZ=           -101.4008
 XXYZ=             -0.0000 YYXZ=              0.0000 ZZXY=              0.0001
 N-N= 1.934536667787D+02 E-N=-1.132788724524D+03  KE= 3.141253751156D+02
 No NMR shielding tensors so no spin-rotation constants.
 Leave Link  601 at Tue Mar 10 15:44:21 2020, MaxMem=  7516192768 cpu:               2.0 elap:               0.2
 (Enter /opt/g16/l701.exe)
 ... and contract with generalized density number  0.
 Compute integral first derivatives.
   1 Symmetry operations used in ECPInt.
 ECPInt:  NShTT=    3003 NPrTT=   10024 LenC2=    2902 LenP2D=    7649.
 LDataN:  DoStor=T MaxTD1= 7 Len=  274
 D1PCM: C-PCM CHGder 1st derivatives, ID1Alg=3 FixD1E=F DoIter=F DoCFld=F I1PDM=0.
 GePol: Maximum number of non-zero 1st derivatives   =     239
 Leave Link  701 at Tue Mar 10 15:44:22 2020, MaxMem=  7516192768 cpu:               7.9 elap:               0.7
 (Enter /opt/g16/l702.exe)
 L702 exits ... SP integral derivatives will be done elsewhere.
 Leave Link  702 at Tue Mar 10 15:44:22 2020, MaxMem=  7516192768 cpu:               0.2 elap:               0.0
 (Enter /opt/g16/l703.exe)
 Integral derivatives from FoFJK, PRISM(SPDF).
 Compute integral first derivatives, UseDBF=T ICtDFT=           0.
 Calling FoFJK, ICntrl=      2527 FMM=F ISym2X=0 I1Cent= 4 IOpClX= 0 NMat=1 NMatS=1 NMatT=0.
 FoFJK:  IHMeth= 1 ICntrl=    2527 DoSepK=F KAlg= 0 I1Cent=           4 FoldK=F
 IRaf=         0 NMat=       1 IRICut=       1 DoRegI=T DoRafI=F ISym2E= 0 IDoP0=0 IntGTp=1.
 FoFCou: FMM=F IPFlag=           0 FMFlag=      100000 FMFlg1=         800
         NFxFlg=           0 DoJE=F BraDBF=F KetDBF=T FulRan=T
         wScrn=  0.000000 ICntrl=      2527 IOpCl=  0 I1Cent=           4 NGrid=           0
         NMat0=    1 NMatS0=      1 NMatT0=    0 NMatD0=    1 NMtDS0=    0 NMtDT0=    0
 Symmetry not used in FoFCou.
 Leave Link  703 at Tue Mar 10 15:44:23 2020, MaxMem=  7516192768 cpu:              12.0 elap:               1.0
 (Enter /opt/g16/l716.exe)
 Dipole        = 5.26555726D-05-3.58906657D-01 4.27492861D-06
 ***** Axes restored to original set *****
 -------------------------------------------------------------------
 Center     Atomic                   Forces (Hartrees/Bohr)
 Number     Number              X              Y              Z
 -------------------------------------------------------------------
      1        6           0.211599020   -0.000002786   -0.000004111
      2        6          -0.150572240    0.000000881   -0.000000371
      3        6          -0.044099180    0.033853350    0.053256646
      4        7           0.070060862   -0.064383422   -0.101281548
      5        6          -0.044101494   -0.033857398   -0.053258521
      6        7           0.070063045    0.064387006    0.101284644
      7        7          -0.112950012    0.000002369    0.000003262
 -------------------------------------------------------------------
 Cartesian Forces:  Max     0.211599020 RMS     0.078886127
 Leave Link  716 at Tue Mar 10 15:44:23 2020, MaxMem=  7516192768 cpu:               0.2 elap:               0.0
 (Enter /opt/g16/l103.exe)

 GradGradGradGradGradGradGradGradGradGradGradGradGradGradGradGradGradGrad
 Berny optimization.
 FormGI is forming the generalized inverse of G from B-inverse, IUseBI=4.
 Internal  Forces:  Max     0.138969961 RMS     0.065685536
 Search for a local minimum.
 Step number   1 out of a maximum of   26
 All quantities printed in internal units (Hartrees-Bohrs-Radians)
 RMS Force = .65686D-01 SwitMx=.10000D-02 MixMth= 1
 Mixed Optimization -- RFO/linear search
 Second derivative matrix not updated -- first step.
 The second derivative matrix:
                          R1        R2        R3        R4        R5
           R1           0.68228
           R2           0.00000   0.81791
           R3           0.00000   0.00000   0.30367
           R4           0.00000   0.00000   0.00000   0.30366
           R5           0.00000   0.00000   0.00000   0.00000   0.79315
           R6           0.00000   0.00000   0.00000   0.00000   0.00000
           A1           0.00000   0.00000   0.00000   0.00000   0.00000
           A2           0.00000   0.00000   0.00000   0.00000   0.00000
           A3           0.00000   0.00000   0.00000   0.00000   0.00000
           A4           0.00000   0.00000   0.00000   0.00000   0.00000
           A5           0.00000   0.00000   0.00000   0.00000   0.00000
           A6           0.00000   0.00000   0.00000   0.00000   0.00000
           A7           0.00000   0.00000   0.00000   0.00000   0.00000
           A8           0.00000   0.00000   0.00000   0.00000   0.00000
           A9           0.00000   0.00000   0.00000   0.00000   0.00000
           D1           0.00000   0.00000   0.00000   0.00000   0.00000
                          R6        A1        A2        A3        A4
           R6           0.79313
           A1           0.00000   0.25000
           A2           0.00000   0.00000   0.25000
           A3           0.00000   0.00000   0.00000   0.25000
           A4           0.00000   0.00000   0.00000   0.00000   0.03624
           A5           0.00000   0.00000   0.00000   0.00000   0.00000
           A6           0.00000   0.00000   0.00000   0.00000   0.00000
           A7           0.00000   0.00000   0.00000   0.00000   0.00000
           A8           0.00000   0.00000   0.00000   0.00000   0.00000
           A9           0.00000   0.00000   0.00000   0.00000   0.00000
           D1           0.00000   0.00000   0.00000   0.00000   0.00000
                          A5        A6        A7        A8        A9
           A5           0.03531
           A6           0.00000   0.03531
           A7           0.00000   0.00000   0.03624
           A8           0.00000   0.00000   0.00000   0.03531
           A9           0.00000   0.00000   0.00000   0.00000   0.03531
           D1           0.00000   0.00000   0.00000   0.00000   0.00000
                          D1
           D1           0.00501
 ITU=  0
     Eigenvalues ---    0.00501   0.03531   0.03531   0.03531   0.03531
     Eigenvalues ---    0.03624   0.03624   0.25000   0.25000   0.30366
     Eigenvalues ---    0.30367   0.68228   0.79313   0.79315   0.81791
 RFO step:  Lambda=-9.05286895D-02 EMin= 5.01372267D-03
 Linear search not attempted -- first point.
 Maximum step size (   0.300) exceeded in Quadratic search.
    -- Step size scaled by   0.823
 Iteration  1 RMS(Cart)=  0.10203234 RMS(Int)=  0.00040856
 Iteration  2 RMS(Cart)=  0.00064351 RMS(Int)=  0.00000017
 Iteration  3 RMS(Cart)=  0.00000025 RMS(Int)=  0.00000000
 ITry= 1 IFail=0 DXMaxC= 2.06D-01 DCOld= 1.00D+10 DXMaxT= 3.00D-01 DXLimC= 3.00D+00 Rises=F
 Variable       Old X    -DE/DX   Delta X   Delta X   Delta X     New X
                                 (Linear)    (Quad)   (Total)
    R1        2.44967   0.09865   0.00000   0.10507   0.10507   2.55475
    R2        2.36964  -0.11295   0.00000  -0.10235  -0.10235   2.26729
    R3        2.87238  -0.06226   0.00000  -0.13002  -0.13002   2.74236
    R4        2.87239  -0.06226   0.00000  -0.13002  -0.13002   2.74236
    R5        2.38287  -0.13896   0.00000  -0.12945  -0.12945   2.25342
    R6        2.38288  -0.13897   0.00000  -0.12945  -0.12945   2.25343
    A1        2.09440   0.00519   0.00000   0.01253   0.01253   2.10694
    A2        2.09439   0.00519   0.00000   0.01254   0.01254   2.10693
    A3        2.09439  -0.01037   0.00000  -0.02507  -0.02507   2.06932
    A4        3.14157   0.00000   0.00000   0.00001   0.00001   3.14158
    A5        3.14159   0.00159   0.00000   0.01041   0.01041   3.15200
    A6        3.14159   0.00159   0.00000   0.01041   0.01041   3.15201
    A7        3.14160  -0.00000   0.00000  -0.00000  -0.00000   3.14160
    A8        3.14158   0.00000   0.00000   0.00000   0.00000   3.14158
    A9        3.14160  -0.00000   0.00000  -0.00000  -0.00000   3.14160
    D1       -3.14158  -0.00000   0.00000  -0.00000  -0.00000  -3.14158
         Item               Value     Threshold  Converged?
 Maximum Force            0.138970     0.000450     NO 
 RMS     Force            0.065686     0.000300     NO 
 Maximum Displacement     0.206323     0.001800     NO 
 RMS     Displacement     0.101762     0.001200     NO 
 Predicted change in Energy=-4.792245D-02
 Lowest energy point so far.  Saving SCF results.
 GradGradGradGradGradGradGradGradGradGradGradGradGradGradGradGradGradGrad

 Leave Link  103 at Tue Mar 10 15:44:23 2020, MaxMem=  7516192768 cpu:               0.2 elap:               0.0
 (Enter /opt/g16/l202.exe)
                          Input orientation:                          
 ---------------------------------------------------------------------
 Center     Atomic      Atomic             Coordinates (Angstroms)
 Number     Number       Type             X           Y           Z
 ---------------------------------------------------------------------
      1          6           0        0.884626    0.057407    0.021906
      2          6           0       -0.467287    0.057408    0.021917
      3          6           0       -1.208581    0.726709    1.074764
      4          7           0       -1.807002    1.280045    1.945209
      5          6           0       -1.208585   -0.611883   -1.030937
      6          7           0       -1.807009   -1.165223   -1.901378
      7          7           0        2.084427    0.057396    0.021889
 ---------------------------------------------------------------------
                    Distance matrix (angstroms):
                    1          2          3          4          5
     1  C    0.000000
     2  C    1.351913   0.000000
     3  C    2.436799   1.451195   0.000000
     4  N    3.526868   2.643621   1.192461   0.000000
     5  C    2.436793   1.451197   2.495156   3.577001   0.000000
     6  N    3.526861   2.643623   3.577002   4.558023   1.192462
     7  N    1.199801   2.551714   3.521424   4.509684   3.521406
                    6          7
     6  N    0.000000
     7  N    4.509659   0.000000
 Stoichiometry    C4N3(1-)
 Framework group  C1[X(C4N3)]
 Deg. of freedom    15
 Full point group                 C1      NOp   1
 RotChk:  IX=0 Diff= 1.27D-04
 Largest Abelian subgroup         C1      NOp   1
 Largest concise Abelian subgroup C1      NOp   1
                         Standard orientation:                         
 ---------------------------------------------------------------------
 Center     Atomic      Atomic             Coordinates (Angstroms)
 Number     Number       Type             X           Y           Z
 ---------------------------------------------------------------------
      1          6           0       -0.000216    1.389205    0.000000
      2          6           0       -0.000000    0.037292   -0.000004
      3          6           0        1.247691   -0.703811    0.000003
      4          7           0        2.279216   -1.302075   -0.000001
      5          6           0       -1.247464   -0.704197    0.000002
      6          7           0       -2.278806   -1.302778   -0.000000
      7          7           0       -0.000420    2.589006    0.000000
 ---------------------------------------------------------------------
 Rotational constants (GHZ):           2.8643195           2.7644174           1.4067409
 Leave Link  202 at Tue Mar 10 15:44:23 2020, MaxMem=  7516192768 cpu:               0.1 elap:               0.0
 (Enter /opt/g16/l301.exe)
 Standard basis: def2TZVP (5D, 7F)
 Ernie: Thresh=  0.10000D-02 Tol=  0.10000D-05 Strict=F.
 There are   252 symmetry adapted cartesian basis functions of A   symmetry.
 There are   217 symmetry adapted basis functions of A   symmetry.
   217 basis functions,   357 primitive gaussians,   252 cartesian basis functions
    23 alpha electrons       23 beta electrons
       nuclear repulsion energy       199.7837187199 Hartrees.
 IExCor= 1009 DFT=T Ex=PBE Corr=PBE ExCW=0 ScaHFX=  0.000000
 ScaDFX=  1.000000  1.000000  1.000000  1.000000 ScalE2=  1.000000  1.000000
 IRadAn=      5 IRanWt=     -1 IRanGd=            0 ICorTp=0 IEmpDi=  4
 NAtoms=    7 NActive=    7 NUniq=    7 SFac= 1.00D+00 NAtFMM=   60 NAOKFM=F Big=F
 Integral buffers will be    131072 words long.
 Raffenetti 2 integral format.
 Two-electron integral symmetry is turned on.
 Standard density basis: W06 (5D, 7F)
   343 Density fitting functions
 There are   343 symmetry adapted density basis functions of A   symmetry.
 ------------------------------------------------------------------------------
 Polarizable Continuum Model (PCM)
 =================================
 Model                : C-PCM.
 Atomic radii         : UFF (Universal Force Field).
 Polarization charges : Total charges.
 Charge compensation  : None.
 Solution method      : On-the-fly selection.
 Cavity type          : Scaled VdW (van der Waals Surface) (Alpha=1.100).
 Cavity algorithm     : GePol (No added spheres)
                        Default sphere list used, NSphG=    7.
                        Lebedev-Laikov grids with approx.  5.0 points / Ang**2.
                        Smoothing algorithm: York/Karplus (Gamma=1.0000).
                        Polarization charges: spherical gaussians, with
                                              point-specific exponents (IZeta= 3).
                        Self-potential: point-specific (ISelfS= 7).
                        Self-field    : sphere-specific E.n sum rule (ISelfD= 2).
 1st derivatives      : Analytical E(r).r(x)/FMM algorithm (CHGder, D1EAlg=3).
                        Cavity 1st derivative terms included.
 Solvent              : Generic,
                        Eps                           = 999.000000
                        Eps(infinity)                 =   0.000000
                        RSolv                         =   0.000000 Ang.
                        Molar volume                  =   0.000000 cm**3/mol
                        Thermal expansion coefficient =   0.000000 K**-1
                        Absolute temperature          = 298.150000 K
                        Numeral density               =   0.000000 Ang**-3
                        Hydrogen bond acidity         =   0.000000
                        Hydrogen bond basicity        =   0.000000
                        Surface tension at interface  =   0.000000 (cal/mol)*Ang**-2
                        Carbon aromaticity            =   0.000000
                        Electronegative halogenicity  =   0.000000
 ------------------------------------------------------------------------------
 Spheres list:
 ISph  on   Nord     Re0    Alpha      Xe            Ye            Ze
    1   C      1    1.9255  1.100     -0.000216      1.389205      0.000000
    2   C      2    1.9255  1.100     -0.000000      0.037292     -0.000004
    3   C      3    1.9255  1.100      1.247691     -0.703811      0.000003
    4   N      4    1.8300  1.100      2.279216     -1.302075     -0.000001
    5   C      5    1.9255  1.100     -1.247464     -0.704197      0.000002
    6   N      6    1.8300  1.100     -2.278806     -1.302778     -0.000000
    7   N      7    1.8300  1.100     -0.000420      2.589006      0.000000
 ------------------------------------------------------------------------------
 GePol: Number of generator spheres                  =       7
 GePol: Total number of spheres                      =       7
 GePol: Number of exposed spheres                    =       7 (100.00%)
 GePol: Number of points                             =    1029
 GePol: Average weight of points                     =       0.15
 GePol: Minimum weight of points                     =   0.20D-04
 GePol: Maximum weight of points                     =    0.20577
 GePol: Number of points with low weight             =      30
 GePol: Fraction of low-weight points (<1% of avg)   =       2.92%
 GePol: Cavity surface area                          =    150.335 Ang**2
 GePol: Cavity volume                                =    135.923 Ang**3
 Leave Link  301 at Tue Mar 10 15:44:23 2020, MaxMem=  7516192768 cpu:               0.8 elap:               0.1
 (Enter /opt/g16/l302.exe)
 NPDir=0 NMtPBC=     1 NCelOv=     1 NCel=       1 NClECP=     1 NCelD=      1
         NCelK=      1 NCelE2=     1 NClLst=     1 CellRange=     0.0.
 One-electron integrals computed using PRISM.
 One-electron integral symmetry used in STVInt
   1 Symmetry operations used in ECPInt.
 ECPInt:  NShTT=    3003 NPrTT=   10024 LenC2=    2906 LenP2D=    7707.
 LDataN:  DoStor=T MaxTD1= 6 Len=  172
 NBasis=   217 RedAO= T EigKep=  4.64D-05  NBF=   217
 NBsUse=   217 1.00D-06 EigRej= -1.00D+00 NBFU=   217
 NBasis=      217 NBas6D=      252 NTT=       23653   NTT6D=    31878
 NDBShl=      105 NDBF=        343 NDBF6D=      427  NNucDB=        0
 IDenFi=        2 ISolve=        0 FullAP=F BlkAPC=T NucTyp=        0
 TolInv= 1.00D-06 TolIt=  1.00D-10 IR12=0.
 FoFCou: FMM=F IPFlag=           0 FMFlag=           0 FMFlg1=           0
         NFxFlg=           0 DoJE=F BraDBF=T KetDBF=T FulRan=T
         wScrn=  0.000000 ICntrl=       600 IOpCl=  3 I1Cent=           6 NGrid=           0
         NMat0=    1 NMatS0=    427 NMatT0=    0 NMatD0=    1 NMtDS0=    0 NMtDT0=    0
 Petite list used in FoFCou.
 DBF EigKep=  6.88D-06 EigRej= -1.00D+00
 NDBF=    343  NBFD=   343
 NRank=   343 NBFDU=   343
 S*AI*S=  6.64935490225    
 Precomputing XC quadrature grid using
 IXCGrd= 4 IRadAn=           5 IRanWt=          -1 IRanGd=           0 AccXCQ= 0.00D+00.
 Generated NRdTot=       0 NPtTot=           0 NUsed=           0 NTot=          32
 NSgBfM=   251   250   250   251   251 MxSgAt=     7 MxSgA2=     7.
 Leave Link  302 at Tue Mar 10 15:44:23 2020, MaxMem=  7516192768 cpu:               4.0 elap:               0.4
 (Enter /opt/g16/l303.exe)
 DipDrv:  MaxL=1.
 Leave Link  303 at Tue Mar 10 15:44:23 2020, MaxMem=  7516192768 cpu:               0.3 elap:               0.0
 (Enter /opt/g16/l401.exe)
 Initial guess from the checkpoint file:  "ccn3.chk"
 B after Tr=    -0.000000   -0.000000   -0.000000
         Rot=    1.000000    0.000000   -0.000000   -0.000045 Ang=  -0.01 deg.
 Guess basis will be translated and rotated to current coordinates.
 Recovered     1 saved fitting vectors from chk file.
 JPrj=2 DoOrth=T DoCkMO=T.
 Generating alternative initial guess.
 ExpMin= 9.52D-02 ExpMax= 1.97D+04 ExpMxC= 6.73D+02 IAcc=3 IRadAn=         5 AccDes= 0.00D+00
 Harris functional with IExCor= 1009 and IRadAn=       5 diagonalized for initial guess.
 HarFok:  IExCor= 1009 AccDes= 0.00D+00 IRadAn=         5 IDoV= 1 UseB2=F ITyADJ=14
 ICtDFT=  3500011 ScaDFX=  1.000000  1.000000  1.000000  1.000000
 FoFCou: FMM=F IPFlag=           0 FMFlag=      100000 FMFlg1=           0
         NFxFlg=           0 DoJE=T BraDBF=F KetDBF=T FulRan=T
         wScrn=  0.000000 ICntrl=       500 IOpCl=  0 I1Cent=   200000004 NGrid=           0
         NMat0=    1 NMatS0=      1 NMatT0=    0 NMatD0=    1 NMtDS0=    0 NMtDT0=    0
 Petite list used in FoFCou.
 Harris En= -316.613607723432    
 Leave Link  401 at Tue Mar 10 15:44:24 2020, MaxMem=  7516192768 cpu:               6.3 elap:               0.5
 (Enter /opt/g16/l502.exe)
 Density fitting will be used, IDenFit= 2 NucTyp=  0.
 Integral symmetry usage will be decided dynamically.
 Closed shell SCF:
 Using DIIS extrapolation, IDIIS=  1040.
 NGot=  7516192768 LenX=  7516060295 LenY=  7515996350
 Requested convergence on RMS density matrix=1.00D-08 within 128 cycles.
 Requested convergence on MAX density matrix=1.00D-06.
 Requested convergence on             energy=1.00D-06.
 No special actions if energy rises.
 Fock matrices will be formed incrementally for  20 cycles.

 Cycle   1  Pass 1  IDiag  1:
 FoFCou: FMM=F IPFlag=           0 FMFlag=      100000 FMFlg1=           0
         NFxFlg=           0 DoJE=T BraDBF=T KetDBF=F FulRan=T
         wScrn=  0.000000 ICntrl=       500 IOpCl=  0 I1Cent=           5 NGrid=           0
         NMat0=    1 NMatS0=      1 NMatT0=    0 NMatD0=    1 NMtDS0=    0 NMtDT0=    0
 Symmetry not used in FoFCou.
 FoFJK:  IHMeth= 1 ICntrl=     500 DoSepK=F KAlg= 0 I1Cent=           4 FoldK=F
 IRaf= 950000000 NMat=       1 IRICut=       1 DoRegI=T DoRafI=F ISym2E= 0 IDoP0=0 IntGTp=1.
 Inv3:  Mode=1 IEnd=     3176523.
 Iteration    1 A*A^-1 deviation from unit magnitude is 3.11D-15 for    751.
 Iteration    1 A*A^-1 deviation from orthogonality  is 2.22D-15 for    729    609.
 Iteration    1 A^-1*A deviation from unit magnitude is 3.00D-15 for    751.
 Iteration    1 A^-1*A deviation from orthogonality  is 1.33D-15 for    728    608.
 E= -316.518761865664    
 DIIS: error= 9.46D-03 at cycle   1 NSaved=   1.
 NSaved= 1 IEnMin= 1 EnMin= -316.518761865664     IErMin= 1 ErrMin= 9.46D-03
 ErrMax= 9.46D-03  0.00D+00 EMaxC= 1.00D-01 BMatC= 1.93D-02 BMatP= 1.93D-02
 IDIUse=3 WtCom= 9.05D-01 WtEn= 9.46D-02
 Coeff-Com:  0.100D+01
 Coeff-En:   0.100D+01
 Coeff:      0.100D+01
 Gap=     0.784 Goal=   None    Shift=    0.000
 GapD=    0.784 DampG=2.000 DampE=1.000 DampFc=2.0000 IDamp=-1.
 RMSDP=1.32D-03 MaxDP=4.72D-02              OVMax= 4.01D-02

 Cycle   2  Pass 1  IDiag  1:
 RMSU=  1.31D-03    CP:  9.92D-01
 E= -316.525892601547     Delta-E=       -0.007130735883 Rises=F Damp=F
 DIIS: error= 5.61D-03 at cycle   2 NSaved=   2.
 NSaved= 2 IEnMin= 2 EnMin= -316.525892601547     IErMin= 2 ErrMin= 5.61D-03
 ErrMax= 5.61D-03  0.00D+00 EMaxC= 1.00D-01 BMatC= 5.81D-03 BMatP= 1.93D-02
 IDIUse=3 WtCom= 9.44D-01 WtEn= 5.61D-02
 Coeff-Com:  0.303D+00 0.697D+00
 Coeff-En:   0.103D+00 0.897D+00
 Coeff:      0.292D+00 0.708D+00
 Gap=     0.143 Goal=   None    Shift=    0.000
 RMSDP=1.07D-03 MaxDP=4.40D-02 DE=-7.13D-03 OVMax= 3.58D-02

 Cycle   3  Pass 1  IDiag  1:
 RMSU=  1.00D-03    CP:  1.02D+00  8.30D-01
 E= -316.521737082577     Delta-E=        0.004155518970 Rises=F Damp=F
 DIIS: error= 9.63D-03 at cycle   3 NSaved=   3.
 NSaved= 3 IEnMin= 2 EnMin= -316.525892601547     IErMin= 2 ErrMin= 5.61D-03
 ErrMax= 9.63D-03  0.00D+00 EMaxC= 1.00D-01 BMatC= 1.06D-02 BMatP= 5.81D-03
 IDIUse=3 WtCom= 9.25D-02 WtEn= 9.08D-01
 Coeff-Com:  0.100D+00 0.550D+00 0.350D+00
 Coeff-En:   0.000D+00 0.618D+00 0.382D+00
 Coeff:      0.927D-02 0.612D+00 0.379D+00
 Gap=     0.142 Goal=   None    Shift=    0.000
 RMSDP=6.08D-04 MaxDP=2.77D-02 DE= 4.16D-03 OVMax= 3.27D-02

 Cycle   4  Pass 1  IDiag  1:
 RMSU=  3.77D-04    CP:  1.00D+00  1.01D+00  6.17D-01
 E= -316.528999009805     Delta-E=       -0.007261927228 Rises=F Damp=F
 DIIS: error= 3.84D-03 at cycle   4 NSaved=   4.
 NSaved= 4 IEnMin= 4 EnMin= -316.528999009805     IErMin= 4 ErrMin= 3.84D-03
 ErrMax= 3.84D-03  0.00D+00 EMaxC= 1.00D-01 BMatC= 1.90D-03 BMatP= 5.81D-03
 IDIUse=3 WtCom= 9.62D-01 WtEn= 3.84D-02
 EnCoef did     5 forward-backward iterations
 Coeff-Com:  0.143D-01 0.322D+00 0.286D+00 0.378D+00
 Coeff-En:   0.000D+00 0.142D+00 0.211D+00 0.647D+00
 Coeff:      0.138D-01 0.315D+00 0.283D+00 0.388D+00
 Gap=     0.143 Goal=   None    Shift=    0.000
 RMSDP=2.74D-04 MaxDP=8.07D-03 DE=-7.26D-03 OVMax= 1.49D-02

 Cycle   5  Pass 1  IDiag  1:
 RMSU=  7.00D-05    CP:  1.01D+00  9.56D-01  5.62D-01  3.42D-01
 E= -316.530786024784     Delta-E=       -0.001787014980 Rises=F Damp=F
 DIIS: error= 1.23D-03 at cycle   5 NSaved=   5.
 NSaved= 5 IEnMin= 5 EnMin= -316.530786024784     IErMin= 5 ErrMin= 1.23D-03
 ErrMax= 1.23D-03  0.00D+00 EMaxC= 1.00D-01 BMatC= 1.63D-04 BMatP= 1.90D-03
 IDIUse=3 WtCom= 9.88D-01 WtEn= 1.23D-02
 Coeff-Com:  0.337D-02 0.190D+00 0.178D+00 0.279D+00 0.350D+00
 Coeff-En:   0.000D+00 0.000D+00 0.000D+00 0.269D-01 0.973D+00
 Coeff:      0.333D-02 0.187D+00 0.176D+00 0.276D+00 0.358D+00
 Gap=     0.143 Goal=   None    Shift=    0.000
 RMSDP=6.22D-05 MaxDP=2.26D-03 DE=-1.79D-03 OVMax= 4.06D-03

 Cycle   6  Pass 1  IDiag  1:
 RMSU=  3.80D-05    CP:  1.00D+00  9.56D-01  5.24D-01  3.27D-01  6.18D-01
 E= -316.530908798989     Delta-E=       -0.000122774205 Rises=F Damp=F
 DIIS: error= 5.04D-04 at cycle   6 NSaved=   6.
 NSaved= 6 IEnMin= 6 EnMin= -316.530908798989     IErMin= 6 ErrMin= 5.04D-04
 ErrMax= 5.04D-04  0.00D+00 EMaxC= 1.00D-01 BMatC= 2.62D-05 BMatP= 1.63D-04
 IDIUse=3 WtCom= 9.95D-01 WtEn= 5.04D-03
 Coeff-Com:  0.683D-03 0.987D-01 0.959D-01 0.164D+00 0.281D+00 0.361D+00
 Coeff-En:   0.000D+00 0.000D+00 0.000D+00 0.000D+00 0.146D+00 0.854D+00
 Coeff:      0.679D-03 0.982D-01 0.955D-01 0.163D+00 0.280D+00 0.363D+00
 Gap=     0.143 Goal=   None    Shift=    0.000
 RMSDP=3.80D-05 MaxDP=1.29D-03 DE=-1.23D-04 OVMax= 2.22D-03

 Cycle   7  Pass 1  IDiag  1:
 RMSU=  1.74D-05    CP:  1.00D+00  9.67D-01  5.26D-01  3.89D-01  5.58D-01
                    CP:  4.78D-01
 E= -316.530930705209     Delta-E=       -0.000021906220 Rises=F Damp=F
 DIIS: error= 9.05D-05 at cycle   7 NSaved=   7.
 NSaved= 7 IEnMin= 7 EnMin= -316.530930705209     IErMin= 7 ErrMin= 9.05D-05
 ErrMax= 9.05D-05  0.00D+00 EMaxC= 1.00D-01 BMatC= 1.53D-06 BMatP= 2.62D-05
 IDIUse=1 WtCom= 1.00D+00 WtEn= 0.00D+00
 Coeff-Com:  0.326D-04 0.240D-01 0.247D-01 0.485D-01 0.985D-01 0.237D+00
 Coeff-Com:  0.567D+00
 Coeff:      0.326D-04 0.240D-01 0.247D-01 0.485D-01 0.985D-01 0.237D+00
 Coeff:      0.567D+00
 Gap=     0.143 Goal=   None    Shift=    0.000
 RMSDP=1.19D-05 MaxDP=5.27D-04 DE=-2.19D-05 OVMax= 5.55D-04

 Cycle   8  Pass 1  IDiag  1:
 RMSU=  1.80D-06    CP:  1.00D+00  9.63D-01  5.32D-01  3.78D-01  5.74D-01
                    CP:  5.34D-01  5.95D-01
 E= -316.530932318880     Delta-E=       -0.000001613671 Rises=F Damp=F
 DIIS: error= 7.52D-06 at cycle   8 NSaved=   8.
 NSaved= 8 IEnMin= 8 EnMin= -316.530932318880     IErMin= 8 ErrMin= 7.52D-06
 ErrMax= 7.52D-06  0.00D+00 EMaxC= 1.00D-01 BMatC= 4.66D-09 BMatP= 1.53D-06
 IDIUse=1 WtCom= 1.00D+00 WtEn= 0.00D+00
 Coeff-Com: -0.227D-04 0.317D-02 0.367D-02 0.801D-02 0.181D-01 0.523D-01
 Coeff-Com:  0.144D+00 0.771D+00
 Coeff:     -0.227D-04 0.317D-02 0.367D-02 0.801D-02 0.181D-01 0.523D-01
 Coeff:      0.144D+00 0.771D+00
 Gap=     0.143 Goal=   None    Shift=    0.000
 RMSDP=8.63D-07 MaxDP=3.84D-05 DE=-1.61D-06 OVMax= 2.35D-05

 Cycle   9  Pass 1  IDiag  1:
 RMSU=  3.25D-07    CP:  1.00D+00  9.63D-01  5.32D-01  3.79D-01  5.73D-01
                    CP:  5.35D-01  6.08D-01  8.09D-01
 E= -316.530932322891     Delta-E=       -0.000000004010 Rises=F Damp=F
 DIIS: error= 9.57D-07 at cycle   9 NSaved=   9.
 NSaved= 9 IEnMin= 9 EnMin= -316.530932322891     IErMin= 9 ErrMin= 9.57D-07
 ErrMax= 9.57D-07  0.00D+00 EMaxC= 1.00D-01 BMatC= 6.84D-11 BMatP= 4.66D-09
 IDIUse=1 WtCom= 1.00D+00 WtEn= 0.00D+00
 Coeff-Com: -0.356D-05 0.297D-03 0.375D-03 0.933D-03 0.251D-02 0.703D-02
 Coeff-Com:  0.195D-01 0.160D+00 0.809D+00
 Coeff:     -0.356D-05 0.297D-03 0.375D-03 0.933D-03 0.251D-02 0.703D-02
 Coeff:      0.195D-01 0.160D+00 0.809D+00
 Gap=     0.143 Goal=   None    Shift=    0.000
 RMSDP=1.09D-07 MaxDP=4.65D-06 DE=-4.01D-09 OVMax= 2.58D-06

 Cycle  10  Pass 1  IDiag  1:
 RMSU=  4.26D-08    CP:  1.00D+00  9.63D-01  5.32D-01  3.79D-01  5.73D-01
                    CP:  5.36D-01  6.07D-01  8.25D-01  9.31D-01
 E= -316.530932322954     Delta-E=       -0.000000000064 Rises=F Damp=F
 DIIS: error= 1.19D-07 at cycle  10 NSaved=  10.
 NSaved=10 IEnMin=10 EnMin= -316.530932322954     IErMin=10 ErrMin= 1.19D-07
 ErrMax= 1.19D-07  0.00D+00 EMaxC= 1.00D-01 BMatC= 2.62D-12 BMatP= 6.84D-11
 IDIUse=1 WtCom= 1.00D+00 WtEn= 0.00D+00
 Coeff-Com: -0.537D-06 0.121D-04 0.153D-04 0.775D-04 0.277D-03 0.672D-03
 Coeff-Com:  0.190D-02 0.251D-01 0.212D+00 0.760D+00
 Coeff:     -0.537D-06 0.121D-04 0.153D-04 0.775D-04 0.277D-03 0.672D-03
 Coeff:      0.190D-02 0.251D-01 0.212D+00 0.760D+00
 Gap=     0.143 Goal=   None    Shift=    0.000
 RMSDP=1.07D-08 MaxDP=2.26D-07 DE=-6.37D-11 OVMax= 4.78D-07

 Cycle  11  Pass 1  IDiag  1:
 RMSU=  6.27D-09    CP:  1.00D+00  9.63D-01  5.32D-01  3.79D-01  5.73D-01
                    CP:  5.35D-01  6.07D-01  8.26D-01  9.35D-01  8.67D-01
 E= -316.530932322957     Delta-E=       -0.000000000003 Rises=F Damp=F
 DIIS: error= 3.17D-08 at cycle  11 NSaved=  11.
 NSaved=11 IEnMin=11 EnMin= -316.530932322957     IErMin=11 ErrMin= 3.17D-08
 ErrMax= 3.17D-08  0.00D+00 EMaxC= 1.00D-01 BMatC= 1.71D-13 BMatP= 2.62D-12
 IDIUse=1 WtCom= 1.00D+00 WtEn= 0.00D+00
 Coeff-Com: -0.126D-06-0.243D-05-0.379D-05 0.720D-05 0.434D-04 0.845D-04
 Coeff-Com:  0.239D-03 0.564D-02 0.605D-01 0.296D+00 0.638D+00
 Coeff:     -0.126D-06-0.243D-05-0.379D-05 0.720D-05 0.434D-04 0.845D-04
 Coeff:      0.239D-03 0.564D-02 0.605D-01 0.296D+00 0.638D+00
 Gap=     0.143 Goal=   None    Shift=    0.000
 RMSDP=2.86D-09 MaxDP=7.74D-08 DE=-2.79D-12 OVMax= 1.93D-07

 Error on total polarization charges =  0.01572
 SCF Done:  E(RPBE-PBE) =  -316.530932323     A.U. after   11 cycles
            NFock= 11  Conv=0.29D-08     -V/T= 2.0052
 KE= 3.148854837675D+02 PE=-1.146298629425D+03 EE= 3.150984946142D+02
 Leave Link  502 at Tue Mar 10 15:44:38 2020, MaxMem=  7516192768 cpu:             167.0 elap:              14.0
 (Enter /opt/g16/l701.exe)
 ... and contract with generalized density number  0.
 Compute integral first derivatives.
   1 Symmetry operations used in ECPInt.
 ECPInt:  NShTT=    3003 NPrTT=   10024 LenC2=    2906 LenP2D=    7707.
 LDataN:  DoStor=T MaxTD1= 7 Len=  274
 D1PCM: C-PCM CHGder 1st derivatives, ID1Alg=3 FixD1E=F DoIter=F DoCFld=F I1PDM=0.
 GePol: Maximum number of non-zero 1st derivatives   =     234
 Leave Link  701 at Tue Mar 10 15:44:39 2020, MaxMem=  7516192768 cpu:               7.8 elap:               0.7
 (Enter /opt/g16/l702.exe)
 L702 exits ... SP integral derivatives will be done elsewhere.
 Leave Link  702 at Tue Mar 10 15:44:39 2020, MaxMem=  7516192768 cpu:               0.2 elap:               0.0
 (Enter /opt/g16/l703.exe)
 Integral derivatives from FoFJK, PRISM(SPDF).
 Compute integral first derivatives, UseDBF=T ICtDFT=           0.
 Calling FoFJK, ICntrl=      2527 FMM=F ISym2X=0 I1Cent= 4 IOpClX= 0 NMat=1 NMatS=1 NMatT=0.
 FoFJK:  IHMeth= 1 ICntrl=    2527 DoSepK=F KAlg= 0 I1Cent=           4 FoldK=F
 IRaf=         0 NMat=       1 IRICut=       1 DoRegI=T DoRafI=F ISym2E= 0 IDoP0=0 IntGTp=1.
 FoFCou: FMM=F IPFlag=           0 FMFlag=      100000 FMFlg1=         800
         NFxFlg=           0 DoJE=F BraDBF=F KetDBF=T FulRan=T
         wScrn=  0.000000 ICntrl=      2527 IOpCl=  0 I1Cent=           4 NGrid=           0
         NMat0=    1 NMatS0=      1 NMatT0=    0 NMatD0=    1 NMtDS0=    0 NMtDT0=    0
 Symmetry not used in FoFCou.
 Leave Link  703 at Tue Mar 10 15:44:40 2020, MaxMem=  7516192768 cpu:              12.3 elap:               1.0
 (Enter /opt/g16/l716.exe)
 Dipole        = 4.08057545D-05-1.59582248D-01 3.54374788D-06
 ***** Axes restored to original set *****
 -------------------------------------------------------------------
 Center     Atomic                   Forces (Hartrees/Bohr)
 Number     Number              X              Y              Z
 -------------------------------------------------------------------
      1        6           0.084594858   -0.000000811   -0.000000926
      2        6          -0.070327953    0.000000522   -0.000000850
      3        6          -0.004831400    0.004424548    0.006961889
      4        7           0.018837064   -0.017673116   -0.027801961
      5        6          -0.004832191   -0.004426253   -0.006961699
      6        7           0.018837835    0.017674424    0.027802695
      7        7          -0.042278214    0.000000686    0.000000852
 -------------------------------------------------------------------
 Cartesian Forces:  Max     0.084594858 RMS     0.028412702
 Leave Link  716 at Tue Mar 10 15:44:40 2020, MaxMem=  7516192768 cpu:               0.2 elap:               0.0
 (Enter /opt/g16/l103.exe)

 GradGradGradGradGradGradGradGradGradGradGradGradGradGradGradGradGradGrad
 Berny optimization.
 Using GEDIIS/GDIIS optimizer.
 FormGI is forming the generalized inverse of G from B-inverse, IUseBI=4.
 Internal  Forces:  Max     0.042316644 RMS     0.022462890
 Search for a local minimum.
 Step number   2 out of a maximum of   26
 All quantities printed in internal units (Hartrees-Bohrs-Radians)
 RMS Force = .22463D-01 SwitMx=.10000D-02 MixMth= 1
 Mixed Optimization -- RFO/linear search
 Update second derivatives using D2CorX and points    1    2
 DE= -5.18D-02 DEPred=-4.79D-02 R= 1.08D+00
 TightC=F SS=  1.41D+00  RLast= 3.00D-01 DXNew= 5.0454D-01 9.0000D-01
 Trust test= 1.08D+00 RLast= 3.00D-01 DXMaxT set to 5.05D-01
 The second derivative matrix:
                          R1        R2        R3        R4        R5
           R1           0.65110
           R2           0.03073   0.78916
           R3           0.01386  -0.01276   0.29803
           R4           0.01386  -0.01276  -0.00564   0.29803
           R5           0.02104  -0.01437  -0.00564  -0.00564   0.80539
           R6           0.02104  -0.01437  -0.00564  -0.00564   0.01224
           A1           0.00098  -0.00160  -0.00080  -0.00080  -0.00329
           A2           0.00098  -0.00160  -0.00080  -0.00080  -0.00329
           A3          -0.00196   0.00320   0.00161   0.00161   0.00657
           A4           0.00000  -0.00000  -0.00000  -0.00000  -0.00000
           A5           0.00198  -0.00253  -0.00122  -0.00122  -0.00373
           A6           0.00198  -0.00253  -0.00122  -0.00122  -0.00373
           A7          -0.00000   0.00000   0.00000   0.00000   0.00000
           A8          -0.00000   0.00000   0.00000   0.00000   0.00000
           A9           0.00000  -0.00000  -0.00000  -0.00000  -0.00000
           D1           0.00000  -0.00000  -0.00000  -0.00000  -0.00000
                          R6        A1        A2        A3        A4
           R6           0.80537
           A1          -0.00329   0.25023
           A2          -0.00329   0.00023   0.25023
           A3           0.00657  -0.00046  -0.00046   0.25092
           A4          -0.00000   0.00000   0.00000  -0.00000   0.03624
           A5          -0.00373   0.00018   0.00018  -0.00035   0.00000
           A6          -0.00373   0.00018   0.00018  -0.00035   0.00000
           A7           0.00000  -0.00000  -0.00000   0.00000  -0.00000
           A8           0.00000  -0.00000  -0.00000   0.00000  -0.00000
           A9          -0.00000   0.00000   0.00000  -0.00000   0.00000
           D1          -0.00000   0.00000   0.00000  -0.00000   0.00000
                          A5        A6        A7        A8        A9
           A5           0.03540
           A6           0.00009   0.03540
           A7          -0.00000  -0.00000   0.03624
           A8          -0.00000  -0.00000   0.00000   0.03531
           A9           0.00000   0.00000  -0.00000   0.00000   0.03531
           D1           0.00000   0.00000  -0.00000   0.00000  -0.00000
                          D1
           D1           0.00501
 ITU=  1  0
 Use linear search instead of GDIIS.
     Eigenvalues ---    0.00501   0.03531   0.03531   0.03531   0.03535
     Eigenvalues ---    0.03624   0.03624   0.25000   0.25081   0.29050
     Eigenvalues ---    0.30367   0.64019   0.79088   0.79314   0.82939
 RFO step:  Lambda=-1.21181166D-03 EMin= 5.01372267D-03
 Quartic linear search produced a step of  0.41615.
 Iteration  1 RMS(Cart)=  0.06311267 RMS(Int)=  0.00109026
 Iteration  2 RMS(Cart)=  0.00107755 RMS(Int)=  0.00000051
 Iteration  3 RMS(Cart)=  0.00000090 RMS(Int)=  0.00000000
 ITry= 1 IFail=0 DXMaxC= 1.31D-01 DCOld= 1.00D+10 DXMaxT= 5.05D-01 DXLimC= 3.00D+00 Rises=F
 Variable       Old X    -DE/DX   Delta X   Delta X   Delta X     New X
                                 (Linear)    (Quad)   (Total)
    R1        2.55475   0.04232   0.04373   0.01937   0.06309   2.61784
    R2        2.26729  -0.04228  -0.04259  -0.00929  -0.05188   2.21542
    R3        2.74236  -0.02838  -0.05411  -0.02132  -0.07543   2.66693
    R4        2.74236  -0.02838  -0.05411  -0.02132  -0.07543   2.66694
    R5        2.25342  -0.03795  -0.05387   0.01359  -0.04028   2.21315
    R6        2.25343  -0.03795  -0.05387   0.01359  -0.04028   2.21315
    A1        2.10694   0.00070   0.00522  -0.00765  -0.00244   2.10450
    A2        2.10693   0.00071   0.00522  -0.00765  -0.00243   2.10449
    A3        2.06932  -0.00141  -0.01043   0.01530   0.00487   2.07419
    A4        3.14158   0.00000   0.00001  -0.00001  -0.00000   3.14158
    A5        3.15200  -0.00054   0.00433  -0.05735  -0.05301   3.09899
    A6        3.15201  -0.00054   0.00433  -0.05735  -0.05302   3.09899
    A7        3.14160  -0.00000  -0.00000  -0.00000  -0.00000   3.14160
    A8        3.14158   0.00000   0.00000   0.00001   0.00001   3.14159
    A9        3.14160  -0.00000  -0.00000  -0.00001  -0.00001   3.14159
    D1       -3.14158  -0.00000  -0.00000  -0.00002  -0.00002   3.14159
         Item               Value     Threshold  Converged?
 Maximum Force            0.042317     0.000450     NO 
 RMS     Force            0.022463     0.000300     NO 
 Maximum Displacement     0.130791     0.001800     NO 
 RMS     Displacement     0.063292     0.001200     NO 
 Predicted change in Energy=-7.450782D-03
 Lowest energy point so far.  Saving SCF results.
 GradGradGradGradGradGradGradGradGradGradGradGradGradGradGradGradGradGrad

 Leave Link  103 at Tue Mar 10 15:44:40 2020, MaxMem=  7516192768 cpu:               0.1 elap:               0.0
 (Enter /opt/g16/l202.exe)
                          Input orientation:                          
 ---------------------------------------------------------------------
 Center     Atomic      Atomic             Coordinates (Angstroms)
 Number     Number       Type             X           Y           Z
 ---------------------------------------------------------------------
      1          6           0        0.910419    0.057409    0.021908
      2          6           0       -0.474882    0.057413    0.021912
      3          6           0       -1.192831    0.709238    1.047283
      4          7           0       -1.831019    1.236047    1.876000
      5          6           0       -1.192834   -0.594415   -1.003457
      6          7           0       -1.831029   -1.121227   -1.832166
      7          7           0        2.082767    0.057395    0.021891
 ---------------------------------------------------------------------
                    Distance matrix (angstroms):
                    1          2          3          4          5
     1  C    0.000000
     2  C    1.385301   0.000000
     3  C    2.428979   1.411281   0.000000
     4  N    3.513165   2.581847   1.171146   0.000000
     5  C    2.428975   1.411282   2.430030   3.471188   0.000000
     6  N    3.513163   2.581847   3.471185   4.394001   1.171146
     7  N    1.172348   2.557649   3.493691   4.488281   3.493674
                    6          7
     6  N    0.000000
     7  N    4.488260   0.000000
 Stoichiometry    C4N3(1-)
 Framework group  C1[X(C4N3)]
 Deg. of freedom    15
 Full point group                 C1      NOp   1
 RotChk:  IX=3 Diff= 2.00D+00
 Largest Abelian subgroup         C1      NOp   1
 Largest concise Abelian subgroup C1      NOp   1
                         Standard orientation:                         
 ---------------------------------------------------------------------
 Center     Atomic      Atomic             Coordinates (Angstroms)
 Number     Number       Type             X           Y           Z
 ---------------------------------------------------------------------
      1          6           0       -1.416102    0.000153    0.000002
      2          6           0       -0.030801    0.000007    0.000003
      3          6           0        0.687280    1.214945    0.000001
      4          7           0        1.325575    2.196863   -0.000002
      5          6           0        0.687019   -1.215085    0.000001
      6          7           0        1.325107   -2.197137   -0.000002
      7          7           0       -2.588450    0.000258   -0.000002
 ---------------------------------------------------------------------
 Rotational constants (GHZ):           2.9621774           2.8324771           1.4479379
 Leave Link  202 at Tue Mar 10 15:44:40 2020, MaxMem=  7516192768 cpu:               0.1 elap:               0.0
 (Enter /opt/g16/l301.exe)
 Standard basis: def2TZVP (5D, 7F)
 Ernie: Thresh=  0.10000D-02 Tol=  0.10000D-05 Strict=F.
 There are   252 symmetry adapted cartesian basis functions of A   symmetry.
 There are   217 symmetry adapted basis functions of A   symmetry.
   217 basis functions,   357 primitive gaussians,   252 cartesian basis functions
    23 alpha electrons       23 beta electrons
       nuclear repulsion energy       202.7312844038 Hartrees.
 IExCor= 1009 DFT=T Ex=PBE Corr=PBE ExCW=0 ScaHFX=  0.000000
 ScaDFX=  1.000000  1.000000  1.000000  1.000000 ScalE2=  1.000000  1.000000
 IRadAn=      5 IRanWt=     -1 IRanGd=            0 ICorTp=0 IEmpDi=  4
 NAtoms=    7 NActive=    7 NUniq=    7 SFac= 1.00D+00 NAtFMM=   60 NAOKFM=F Big=F
 Integral buffers will be    131072 words long.
 Raffenetti 2 integral format.
 Two-electron integral symmetry is turned on.
 Standard density basis: W06 (5D, 7F)
   343 Density fitting functions
 There are   343 symmetry adapted density basis functions of A   symmetry.
 ------------------------------------------------------------------------------
 Polarizable Continuum Model (PCM)
 =================================
 Model                : C-PCM.
 Atomic radii         : UFF (Universal Force Field).
 Polarization charges : Total charges.
 Charge compensation  : None.
 Solution method      : On-the-fly selection.
 Cavity type          : Scaled VdW (van der Waals Surface) (Alpha=1.100).
 Cavity algorithm     : GePol (No added spheres)
                        Default sphere list used, NSphG=    7.
[...]
 FormGI is forming the generalized inverse of G from B-inverse, IUseBI=4.
 Internal  Forces:  Max     0.000027696 RMS     0.000012621
 Search for a local minimum.
 Step number   8 out of a maximum of   26
 All quantities printed in internal units (Hartrees-Bohrs-Radians)
 RMS Force = .12621D-04 SwitMx=.10000D-02 MixMth= 2
 Mixed Optimization -- En-DIIS/RFO-DIIS
 Swapping is turned off.
 Update second derivatives using D2CorX and points    1    2    3    4    5
                                                      6    7    8
 DE= -2.99D-07 DEPred=-3.30D-07 R= 9.06D-01
 Trust test= 9.06D-01 RLast= 2.56D-03 DXMaxT set to 5.05D-01
 The second derivative matrix:
                          R1        R2        R3        R4        R5
           R1           0.42465
           R2           0.02875   0.90569
           R3           0.02970  -0.01409   0.36635
           R4           0.02954  -0.01435   0.06256   0.36609
           R5          -0.00250   0.06969   0.01166   0.01150   0.88303
           R6          -0.00291   0.06907   0.01131   0.01115   0.08948
           A1           0.01212   0.00343  -0.00706  -0.00725  -0.00087
           A2           0.01159   0.00262  -0.00749  -0.00767  -0.00139
           A3          -0.02374  -0.00607   0.01454   0.01490   0.00225
           A4          -0.00004   0.00001  -0.00005  -0.00005  -0.00002
           A5           0.00637  -0.00125  -0.00296  -0.00294  -0.00146
           A6           0.00702  -0.00025  -0.00240  -0.00240  -0.00081
           A7           0.00067   0.00131   0.00057   0.00055   0.00075
           A8          -0.00073  -0.00143  -0.00061  -0.00060  -0.00081
           A9           0.00073   0.00142   0.00061   0.00060   0.00081
           D1          -0.00342  -0.00667  -0.00287  -0.00281  -0.00381
                          R6        A1        A2        A3        A4
           R6           0.88222
           A1          -0.00134   0.22953
           A2          -0.00184  -0.02105   0.22839
           A3           0.00316   0.04151   0.04265   0.16588
           A4          -0.00002  -0.00003  -0.00003   0.00006   0.03624
           A5          -0.00141   0.00656   0.00662  -0.01317   0.00001
           A6          -0.00078   0.00729   0.00732  -0.01461   0.00001
           A7           0.00072   0.00080   0.00077  -0.00157  -0.00000
           A8          -0.00078  -0.00087  -0.00083   0.00170   0.00000
           A9           0.00078   0.00087   0.00083  -0.00170  -0.00000
           D1          -0.00366  -0.00408  -0.00390   0.00798   0.00000
                          A5        A6        A7        A8        A9
           A5           0.06349
           A6           0.02811   0.06338
           A7          -0.00009  -0.00005   0.03629
           A8           0.00010   0.00005  -0.00006   0.03538
           A9          -0.00010  -0.00005   0.00006  -0.00007   0.03538
           D1           0.00046   0.00024  -0.00029   0.00032  -0.00032
                          D1
           D1           0.00650
 ITU=  0  1  1  1  0  1  1  0
     Eigenvalues ---    0.00547   0.03530   0.03531   0.03532   0.03623
     Eigenvalues ---    0.03624   0.07886   0.13127   0.25002   0.30367
     Eigenvalues ---    0.38744   0.46836   0.79315   0.83891   1.04297
 En-DIIS/RFO-DIIS/Sim-DIIS IScMMF=       -3 using points:     8    7    6    5
 RFO step:  Lambda=-1.40661869D-07.
 NNeg= 0 NGDIIS= 4 SimSw=  2.50D-01 Rises=F DC= -2.99D-07 SmlDif=  1.00D-05
 NRisDI= 0 DoIntr=F SqrtH=F CThrHd= 10.0 CDAdj=  3.0
 RMS Error=  0.1241455234D-02 NUsed= 4 OKEnD=F EnDIS=F
 InvSVX:  RCond= 6.77D-07 Info=           0 Equed=N FErr=  1.72D-14 BErr=  5.59D-17
 DidBck=T Rises=F RFO-DIIS coefs:    0.17260    1.20337   -0.39896    0.02299
 Iteration  1 RMS(Cart)=  0.00044178 RMS(Int)=  0.00000012
 Iteration  2 RMS(Cart)=  0.00000019 RMS(Int)=  0.00000001
 ITry= 1 IFail=0 DXMaxC= 1.07D-03 DCOld= 1.00D+10 DXMaxT= 5.05D-01 DXLimC= 3.00D+00 Rises=F
 Variable       Old X    -DE/DX   Delta X   Delta X   Delta X     New X
                                 (Linear)    (Quad)   (Total)
    R1        2.65975  -0.00001   0.00002  -0.00005  -0.00003   2.65971
    R2        2.21898   0.00002   0.00032  -0.00033  -0.00001   2.21897
    R3        2.65974  -0.00002  -0.00003  -0.00000  -0.00004   2.65971
    R4        2.65974  -0.00002  -0.00003  -0.00000  -0.00004   2.65971
    R5        2.21902  -0.00001   0.00015  -0.00016  -0.00001   2.21901
    R6        2.21902  -0.00001   0.00015  -0.00016  -0.00001   2.21901
    A1        2.09443   0.00001  -0.00000   0.00003   0.00003   2.09446
    A2        2.09443   0.00000  -0.00000   0.00003   0.00003   2.09446
    A3        2.09432  -0.00001   0.00000  -0.00006  -0.00006   2.09426
    A4        3.14159  -0.00000   0.00001  -0.00001  -0.00000   3.14159
    A5        3.14142  -0.00000  -0.00010   0.00007  -0.00003   3.14139
    A6        3.14142   0.00000  -0.00009   0.00010   0.00000   3.14142
    A7        3.14156   0.00001   0.00004   0.00000   0.00004   3.14160
    A8        3.14163  -0.00001  -0.00004  -0.00000  -0.00004   3.14159
    A9        3.14156   0.00001   0.00004   0.00000   0.00004   3.14160
    D1       -3.14042  -0.00003  -0.00129  -0.00004  -0.00132   3.14144
         Item               Value     Threshold  Converged?
 Maximum Force            0.000028     0.000450     YES
 RMS     Force            0.000013     0.000300     YES
 Maximum Displacement     0.001066     0.001800     YES
 RMS     Displacement     0.000442     0.001200     YES
 Predicted change in Energy=-3.208788D-08
 Optimization completed.
    -- Stationary point found.
                           ----------------------------
                           !   Optimized Parameters   !
                           ! (Angstroms and Degrees)  !
 --------------------------                            --------------------------
 ! Name  Definition              Value          Derivative Info.                !
 --------------------------------------------------------------------------------
 ! R1    R(1,2)                  1.4075         -DE/DX =    0.0                 !
 ! R2    R(1,7)                  1.1742         -DE/DX =    0.0                 !
 ! R3    R(2,3)                  1.4075         -DE/DX =    0.0                 !
 ! R4    R(2,5)                  1.4075         -DE/DX =    0.0                 !
 ! R5    R(3,4)                  1.1743         -DE/DX =    0.0                 !
 ! R6    R(5,6)                  1.1743         -DE/DX =    0.0                 !
 ! A1    A(1,2,3)              120.0021         -DE/DX =    0.0                 !
 ! A2    A(1,2,5)              120.0021         -DE/DX =    0.0                 !
 ! A3    A(3,2,5)              119.9957         -DE/DX =    0.0                 !
 ! A4    L(2,1,7,6,-1)         179.9997         -DE/DX =    0.0                 !
 ! A5    L(2,3,4,6,-1)         179.99           -DE/DX =    0.0                 !
 ! A6    L(2,5,6,4,-1)         179.9899         -DE/DX =    0.0                 !
 ! A7    L(2,1,7,6,-2)         179.9982         -DE/DX =    0.0                 !
 ! A8    L(2,3,4,6,-2)         180.0021         -DE/DX =    0.0                 !
 ! A9    L(2,5,6,4,-2)         179.9979         -DE/DX =    0.0                 !
 ! D1    D(1,2,5,3)            180.0673         -DE/DX =    0.0                 !
 --------------------------------------------------------------------------------
 Lowest energy point so far.  Saving SCF results.
 Largest change from initial coordinates is atom    4       3.684 Angstoms.
 GradGradGradGradGradGradGradGradGradGradGradGradGradGradGradGradGradGrad

 Leave Link  103 at Tue Mar 10 15:46:09 2020, MaxMem=  7516192768 cpu:               0.1 elap:               0.0
 (Enter /opt/g16/l202.exe)
                          Input orientation:                          
 ---------------------------------------------------------------------
 Center     Atomic      Atomic             Coordinates (Angstroms)
 Number     Number       Type             X           Y           Z
 ---------------------------------------------------------------------
      1          6           0        0.903366    0.057312    0.021967
      2          6           0       -0.504111    0.056910    0.022228
      3          6           0       -1.207890    0.711215    1.050609
      4          7           0       -1.795228    1.257068    1.908483
      5          6           0       -1.207898   -0.596588   -1.006661
      6          7           0       -1.795246   -1.141720   -1.864987
      7          7           0        2.077598    0.057664    0.021731
 ---------------------------------------------------------------------
                    Distance matrix (angstroms):
                    1          2          3          4          5
     1  C    0.000000
     2  C    1.407477   0.000000
     3  C    2.437847   1.407476   0.000000
     4  N    3.504393   2.581729   1.174253   0.000000
     5  C    2.437847   1.407476   2.437767   3.504149   0.000000
     6  N    3.504394   2.581729   3.504148   4.471382   1.174253
     7  N    1.174231   2.581708   3.504304   4.471821   3.504300
                    6          7
     6  N    0.000000
     7  N    4.471816   0.000000
 Stoichiometry    C4N3(1-)
 Framework group  C1[X(C4N3)]
 Deg. of freedom    15
 Full point group                 C1      NOp   1
 RotChk:  IX=2 Diff= 8.01D-13
 Largest Abelian subgroup         C1      NOp   1
 Largest concise Abelian subgroup C1      NOp   1
                         Standard orientation:                         
 ---------------------------------------------------------------------
 Center     Atomic      Atomic             Coordinates (Angstroms)
 Number     Number       Type             X           Y           Z
 ---------------------------------------------------------------------
      1          6           0        1.407560   -0.006139   -0.000134
      2          6           0        0.000097   -0.000001   -0.000612
      3          6           0       -0.708996   -1.215804   -0.000135
      4          7           0       -1.300766   -2.230041    0.000290
      5          6           0       -0.698364    1.221940   -0.000135
      6          7           0       -1.281268    2.241299    0.000290
      7          7           0        2.581780   -0.011254    0.000290
 ---------------------------------------------------------------------
 Rotational constants (GHZ):           2.8773605           2.8767123           1.4385183
 Leave Link  202 at Tue Mar 10 15:46:09 2020, MaxMem=  7516192768 cpu:               0.1 elap:               0.0
 (Enter /opt/g16/l601.exe)
 Copying SCF densities to generalized density rwf, IOpCl= 0 IROHF=0.

 **********************************************************************

            Population analysis using the SCF Density.

 **********************************************************************

 Orbital symmetries:
       Occupied  (A) (A) (A) (A) (A) (A) (A) (A) (A) (A) (A) (A)
                 (A) (A) (A) (A) (A) (A) (A) (A) (A) (A) (A)
       Virtual   (A) (A) (A) (A) (A) (A) (A) (A) (A) (A) (A) (A)
                 (A) (A) (A) (A) (A) (A) (A) (A) (A) (A) (A) (A)
                 (A) (A) (A) (A) (A) (A) (A) (A) (A) (A) (A) (A)
                 (A) (A) (A) (A) (A) (A) (A) (A) (A) (A) (A) (A)
                 (A) (A) (A) (A) (A) (A) (A) (A) (A) (A) (A) (A)
                 (A) (A) (A) (A) (A) (A) (A) (A) (A) (A) (A) (A)
                 (A) (A) (A) (A) (A) (A) (A) (A) (A) (A) (A) (A)
                 (A) (A) (A) (A) (A) (A) (A) (A) (A) (A) (A) (A)
                 (A) (A) (A) (A) (A) (A) (A) (A) (A) (A) (A) (A)
                 (A) (A) (A) (A) (A) (A) (A) (A) (A) (A) (A) (A)
                 (A) (A) (A) (A) (A) (A) (A) (A) (A) (A) (A) (A)
                 (A) (A) (A) (A) (A) (A) (A) (A) (A) (A) (A) (A)
                 (A) (A) (A) (A) (A) (A) (A) (A) (A) (A) (A) (A)
                 (A) (A) (A) (A) (A) (A) (A) (A) (A) (A) (A) (A)
                 (A) (A) (A) (A) (A) (A) (A) (A) (A) (A) (A) (A)
                 (A) (A) (A) (A) (A) (A) (A) (A) (A) (A) (A) (A)
                 (A) (A)
 The electronic state is 1-A.
 Alpha  occ. eigenvalues --  -13.97095 -13.97094 -13.97091  -9.93214  -9.92410
 Alpha  occ. eigenvalues --   -9.92408  -9.92406  -0.82826  -0.81183  -0.81181
 Alpha  occ. eigenvalues --   -0.72229  -0.52846  -0.52846  -0.36344  -0.32410
 Alpha  occ. eigenvalues --   -0.32410  -0.32269  -0.30089  -0.30087  -0.30075
 Alpha  occ. eigenvalues --   -0.30074  -0.29105  -0.18686
 Alpha virt. eigenvalues --   -0.03489  -0.03486   0.00128   0.00130   0.01816
 Alpha virt. eigenvalues --    0.05131   0.08869   0.08871   0.13225   0.16518
 Alpha virt. eigenvalues --    0.17961   0.18490   0.18491   0.22187   0.23953
 Alpha virt. eigenvalues --    0.23956   0.27590   0.27591   0.29158   0.31956
 Alpha virt. eigenvalues --    0.32228   0.32230   0.36555   0.41107   0.42270
 Alpha virt. eigenvalues --    0.42273   0.42859   0.42862   0.46257   0.46261
 Alpha virt. eigenvalues --    0.49212   0.54858   0.54860   0.55096   0.57509
 Alpha virt. eigenvalues --    0.57963   0.57967   0.67406   0.67407   0.69173
 Alpha virt. eigenvalues --    0.69614   0.69618   0.72547   0.82660   0.82660
 Alpha virt. eigenvalues --    0.82675   0.82678   0.83465   1.00488   1.00496
 Alpha virt. eigenvalues --    1.00881   1.03710   1.07821   1.11825   1.11831
 Alpha virt. eigenvalues --    1.17808   1.17809   1.17905   1.20732   1.22579
 Alpha virt. eigenvalues --    1.22583   1.22805   1.30929   1.30932   1.33226
 Alpha virt. eigenvalues --    1.33635   1.35950   1.35958   1.40533   1.45917
 Alpha virt. eigenvalues --    1.45922   1.47998   1.48000   1.51674   1.61097
 Alpha virt. eigenvalues --    1.61100   1.75079   1.75082   1.80449   1.81215
 Alpha virt. eigenvalues --    1.82015   1.82018   1.84285   1.94471   1.94473
 Alpha virt. eigenvalues --    2.08990   2.11858   2.11859   2.16812   2.23751
 Alpha virt. eigenvalues --    2.23751   2.29826   2.29829   2.31062   2.31592
 Alpha virt. eigenvalues --    2.37070   2.37085   2.56919   2.56924   2.58771
 Alpha virt. eigenvalues --    2.58992   2.60770   2.60775   2.61728   2.61743
 Alpha virt. eigenvalues --    2.65162   2.65162   2.71856   2.73839   2.81224
 Alpha virt. eigenvalues --    2.85358   2.85365   2.88489   2.88493   2.88971
 Alpha virt. eigenvalues --    2.92799   2.94790   2.94828   2.94835   3.02951
 Alpha virt. eigenvalues --    3.02958   3.03963   3.12253   3.12255   3.14306
 Alpha virt. eigenvalues --    3.14307   3.21989   3.24994   3.29357   3.29368
 Alpha virt. eigenvalues --    3.30372   3.30879   3.32823   3.32824   3.54708
 Alpha virt. eigenvalues --    3.54718   3.63297   3.63306   3.76512   3.86156
 Alpha virt. eigenvalues --    3.87553   3.87556   3.87868   3.88202   3.88205
 Alpha virt. eigenvalues --    3.97468   3.97487   3.99987   4.10608   4.10616
 Alpha virt. eigenvalues --    4.16025   4.16025   4.35871   4.40213   4.46170
 Alpha virt. eigenvalues --    4.46171   4.47369   4.47376   4.48590   4.50260
 Alpha virt. eigenvalues --    4.54027   4.59117   4.59127   4.66894   4.66904
 Alpha virt. eigenvalues --    4.70440   4.75510   4.75514   4.87392   5.07159
 Alpha virt. eigenvalues --    5.07163   5.09486   5.13880   5.13882   5.28183
 Alpha virt. eigenvalues --    5.44987   5.44994   5.53728   5.56924   5.60978
 Alpha virt. eigenvalues --    5.60987   5.65929   5.65946   5.89040   5.94660
 Alpha virt. eigenvalues --    5.94663   5.98649  22.66548  22.89100  22.89102
 Alpha virt. eigenvalues --   23.71293  31.73882  31.78590  31.78591
          Condensed to atoms (all electrons):
               1          2          3          4          5          6
     1  C    5.343273   0.057438  -0.084579  -0.004107  -0.084580  -0.004107
     2  C    0.057438   5.995559   0.057420  -0.142499   0.057423  -0.142501
     3  C   -0.084579   0.057420   5.343652   1.101266  -0.084767  -0.004120
     4  N   -0.004107  -0.142499   1.101266   6.145226  -0.004121  -0.000296
     5  C   -0.084580   0.057423  -0.084767  -0.004121   5.343634   1.101269
     6  N   -0.004107  -0.142501  -0.004120  -0.000296   1.101269   6.145226
     7  N    1.101305  -0.142519  -0.004110  -0.000295  -0.004110  -0.000295
               7
     1  C    1.101305
     2  C   -0.142519
     3  C   -0.004110
     4  N   -0.000295
     5  C   -0.004110
     6  N   -0.000295
     7  N    6.145205
 Mulliken charges:
               1
     1  C   -0.324642
     2  C    0.259679
     3  C   -0.324761
     4  N   -0.095173
     5  C   -0.324747
     6  N   -0.095175
     7  N   -0.095179
 Sum of Mulliken charges =  -1.00000
 Mulliken charges with hydrogens summed into heavy atoms:
               1
     1  C   -0.324642
     2  C    0.259679
     3  C   -0.324761
     4  N   -0.095173
     5  C   -0.324747
     6  N   -0.095175
     7  N   -0.095179
 Electronic spatial extent (au):  <R**2>=            752.5486
 Charge=             -1.0000 electrons
 Dipole moment (field-independent basis, Debye):
    X=              0.0022    Y=              0.0001    Z=             -0.0018  Tot=              0.0028
 Quadrupole moment (field-independent basis, Debye-Ang):
   XX=            -63.6902   YY=            -63.6842   ZZ=            -41.2481
   XY=              0.0001   XZ=             -0.0000   YZ=             -0.0000
 Traceless Quadrupole moment (field-independent basis, Debye-Ang):
   XX=             -7.4827   YY=             -7.4767   ZZ=             14.9594
   XY=              0.0001   XZ=             -0.0000   YZ=             -0.0000
 Octapole moment (field-independent basis, Debye-Ang**2):
  XXX=            -35.8443  YYY=             -0.4687  ZZZ=              0.0016  XYY=             35.8517
  XXY=              0.4690  XXZ=             -0.0095  XZZ=              0.0017  YZZ=              0.0001
  YYZ=             -0.0095  XYZ=              0.0000
 Hexadecapole moment (field-independent basis, Debye-Ang**3):
 XXXX=           -676.1459 YYYY=           -675.9713 ZZZZ=            -45.2659 XXXY=              0.0004
 XXXZ=             -0.0125 YYYX=              0.0005 YYYZ=             -0.0002 ZZZX=             -0.0000
 ZZZY=             -0.0000 XXYY=           -225.3629 XXZZ=            -96.9329 YYZZ=            -96.9165
 XXYZ=              0.0002 YYXZ=              0.0125 ZZXY=              0.0000
 N-N= 2.021076742418D+02 E-N=-1.151270516058D+03  KE= 3.151979990772D+02
 No NMR shielding tensors so no spin-rotation constants.
 Leave Link  601 at Tue Mar 10 15:46:09 2020, MaxMem=  7516192768 cpu:               2.0 elap:               0.2
 (Enter /opt/g16/l9999.exe)

 Test job not archived.
 1\1\GINC-OBELIX\FOpt\RPBEPBE\def2TZVP/W06\C4N3(1-)\MTMJEA001\10-Mar-20
 20\0\\#p pbepbe/def2tzvp/w06 opt scrf(cpcm,solvent=generic,read)\\ccn3
 \\-1,1\C,0.9033662161,0.0573115355,0.0219668466\C,-0.5041106939,0.0569
 100008,0.0222278315\C,-1.2078902712,0.7112149972,1.0506087689\N,-1.795
 2283686,1.2570677416,1.9084832956\C,-1.207898335,-0.5965876056,-1.0066
 610051\N,-1.7952460533,-1.1417202067,-1.864986763\N,2.077597506,0.0576
 635371,0.0217310255\\Version=ES64L-G16RevC.01\State=1-A\HF=-316.537856
 9\RMSD=9.085e-09\RMSF=1.220e-05\Dipole=0.0008695,-0.0006017,0.0003417\
 Quadrupole=-5.5632075,6.3211429,-0.7579354,-0.0000326,-0.0000415,-7.55
 20195\PG=C01 [X(C4N3)]\\@


 IF YOU BELIEVE CERTAIN WORDS, YOU BELIEVE THEIR HIDDEN ARGUMENTS.
 WHEN YOU BELIEVE SOMETHING IS RIGHT OR WRONG, TRUE OR FALSE, 
 YOU BELIEVE THE ASSUMPTIONS IN THE WORDS WHICH EXPRESS THE ARGUMENTS.
 SUCH ASSUMPTIONS ARE OFTEN FULL OF HOLES, BUT REMAIN MOST PRECIOUS 
 TO THE CONVINCED.

                 -- THE OPEN-ENDED PROOF FROM THE PANOPLIA PROPHETICA
                    CHILDREN OF DUNE BY FRANK HERBERT
 Job cpu time:       0 days  0 hours 24 minutes 34.6 seconds.
 Elapsed time:       0 days  0 hours  2 minutes  5.7 seconds.
 File lengths (MBytes):  RWF=     41 Int=      0 D2E=      0 Chk=      7 Scr=      1
 Normal termination of Gaussian 16 at Tue Mar 10 15:46:09 2020.
