 Entering Gaussian System, Link 0=g16
 Input=c2c1im_c4n3.gjf
 Output=c2c1im_c4n3.log
 Initial command:
 /opt/g16/l1.exe "/scratch/mtmjea001/c2c1im_c4n3/Gau-26241.inp" -scrdir="/scratch/mtmjea001/c2c1im_c4n3/"
 Entering Link 1 = /opt/g16/l1.exe PID=     26242.
  
 Copyright (c) 1988-2019, Gaussian, Inc.  All Rights Reserved.
  
 This is part of the Gaussian(R) 16 program.  It is based on
 the Gaussian(R) 09 system (copyright 2009, Gaussian, Inc.),
 the Gaussian(R) 03 system (copyright 2003, Gaussian, Inc.),
 the Gaussian(R) 98 system (copyright 1998, Gaussian, Inc.),
 the Gaussian(R) 94 system (copyright 1995, Gaussian, Inc.),
 the Gaussian 92(TM) system (copyright 1992, Gaussian, Inc.),
 the Gaussian 90(TM) system (copyright 1990, Gaussian, Inc.),
 the Gaussian 88(TM) system (copyright 1988, Gaussian, Inc.),
 the Gaussian 86(TM) system (copyright 1986, Carnegie Mellon
 University), and the Gaussian 82(TM) system (copyright 1983,
 Carnegie Mellon University). Gaussian is a federally registered
 trademark of Gaussian, Inc.
  
 This software contains proprietary and confidential information,
 including trade secrets, belonging to Gaussian, Inc.
  
 This software is provided under written license and may be
 used, copied, transmitted, or stored only in accord with that
 written license.
  
 The following legend is applicable only to US Government
 contracts under FAR:
  
                    RESTRICTED RIGHTS LEGEND
  
 Use, reproduction and disclosure by the US Government is
 subject to restrictions as set forth in subparagraphs (a)
 and (c) of the Commercial Computer Software - Restricted
 Rights clause in FAR 52.227-19.
  
 Gaussian, Inc.
 340 Quinnipiac St., Bldg. 40, Wallingford CT 06492
  
  
 ---------------------------------------------------------------
 Warning -- This program may not be used in any manner that
 competes with the business of Gaussian, Inc. or will provide
 assistance to any competitor of Gaussian, Inc.  The licensee
 of this program is prohibited from giving any competitor of
 Gaussian, Inc. access to this program.  By using this program,
 the user acknowledges that Gaussian, Inc. is engaged in the
 business of creating and licensing software in the field of
 computational chemistry and represents and warrants to the
 licensee that it is not a competitor of Gaussian, Inc. and that
 it will not use this program in any manner prohibited above.
 ---------------------------------------------------------------
  

 Cite this work as:
 Gaussian 16, Revision C.01,
 M. J. Frisch, G. W. Trucks, H. B. Schlegel, G. E. Scuseria, 
 M. A. Robb, J. R. Cheeseman, G. Scalmani, V. Barone, 
 G. A. Petersson, H. Nakatsuji, X. Li, M. Caricato, A. V. Marenich, 
 J. Bloino, B. G. Janesko, R. Gomperts, B. Mennucci, H. P. Hratchian, 
 J. V. Ortiz, A. F. Izmaylov, J. L. Sonnenberg, D. Williams-Young, 
 F. Ding, F. Lipparini, F. Egidi, J. Goings, B. Peng, A. Petrone, 
 T. Henderson, D. Ranasinghe, V. G. Zakrzewski, J. Gao, N. Rega, 
 G. Zheng, W. Liang, M. Hada, M. Ehara, K. Toyota, R. Fukuda, 
 J. Hasegawa, M. Ishida, T. Nakajima, Y. Honda, O. Kitao, H. Nakai, 
 T. Vreven, K. Throssell, J. A. Montgomery, Jr., J. E. Peralta, 
 F. Ogliaro, M. J. Bearpark, J. J. Heyd, E. N. Brothers, K. N. Kudin, 
 V. N. Staroverov, T. A. Keith, R. Kobayashi, J. Normand, 
 K. Raghavachari, A. P. Rendell, J. C. Burant, S. S. Iyengar, 
 J. Tomasi, M. Cossi, J. M. Millam, M. Klene, C. Adamo, R. Cammi, 
 J. W. Ochterski, R. L. Martin, K. Morokuma, O. Farkas, 
 J. B. Foresman, and D. J. Fox, Gaussian, Inc., Wallingford CT, 2019.
 
 ******************************************
 Gaussian 16:  ES64L-G16RevC.01  3-Jul-2019
                29-Feb-2020 
 ******************************************
 %chk=c2c1im_c4n3.chk
 %nprocs=12
 Will use up to   12 processors via shared memory.
 %mem=32Gb
 Default route: test
 --------
 #CBS-QB3
 --------
 1/18=20,19=15,26=3,38=1/1,3;
 2/9=110,12=2,17=6,18=5,40=1/2;
 3/5=4,6=6,7=700,11=2,25=1,30=1,71=1,74=-5/1,2,3;
 4//1;
 5/5=2,38=5/2;
 6/7=2,8=2,9=2,10=2,28=1/1;
 7//1,2,3,16;
 1/18=20,19=15,26=3/3(2);
 2/9=110/2;
 99//99;
 2/9=110/2;
 3/5=4,6=6,7=700,11=2,25=1,30=1,71=1,74=-5/1,2,3;
 4/5=5,16=3,69=1/1;
 5/5=2,38=5/2;
 7//1,2,3,16;
 1/18=20,19=15,26=3/3(-5);
 2/9=110/2;
 6/7=2,8=2,9=2,10=2,19=2,28=1/1;
 99/9=1/99;
 -----------
 c2c1im_c4n3
 -----------
 Symbolic Z-matrix:
 Charge =  0 Multiplicity = 1
 C                     2.86669  -0.62973  -0.56678 
 C                     2.71644   0.76657   0.02643 
 N                     1.32382   1.01794   0.38739 
 C                     0.73199   0.63921   1.56409 
 C                    -0.5814    0.9697    1.46786 
 N                    -0.76173   1.53049   0.23115 
 C                     0.39982   1.54034  -0.42172 
 C                    -2.04333   1.94742  -0.31309 
 C                    -0.03497  -2.09243   0.50636 
 C                    -0.94952  -1.57662  -0.41742 
 C                    -0.43154  -0.92176  -1.53152 
 N                     0.03392  -0.27343  -2.37857 
 C                    -2.25998  -1.27421  -0.03631 
 N                    -3.31532  -0.90632   0.27455 
 N                     0.77471  -2.41124   1.2733 
 H                     2.5459   -1.38207   0.15365 
 H                     3.91205  -0.79756  -0.82148 
 H                     2.2577   -0.7216   -1.46551 
 H                     3.01767   1.53308  -0.69306 
 H                     3.31807   0.87466   0.93304 
 H                     1.28046   0.14333   2.34532 
 H                    -1.39962   0.83062   2.15228 
 H                     0.55863   1.88057  -1.43004 
 H                    -1.95817   2.01215  -1.39648 
 H                    -2.3196    2.9178    0.1012 
 H                    -2.79414   1.19861  -0.0443 
 
 Add virtual bond connecting atoms H16        and N15        Dist= 4.41D+00.
 Add virtual bond connecting atoms H26        and N14        Dist= 4.14D+00.

 GradGradGradGradGradGradGradGradGradGradGradGradGradGradGradGradGradGrad
 Berny optimization.
 Initialization pass.
                           ----------------------------
                           !    Initial Parameters    !
                           ! (Angstroms and Degrees)  !
 --------------------------                            --------------------------
 ! Name  Definition              Value          Derivative Info.                !
 --------------------------------------------------------------------------------
 ! R1    R(1,2)                  1.5245         estimate D2E/DX2                !
 ! R2    R(1,16)                 1.0899         estimate D2E/DX2                !
 ! R3    R(1,17)                 1.089          estimate D2E/DX2                !
 ! R4    R(1,18)                 1.0895         estimate D2E/DX2                !
 ! R5    R(2,3)                  1.4604         estimate D2E/DX2                !
 ! R6    R(2,19)                 1.0936         estimate D2E/DX2                !
 ! R7    R(2,20)                 1.0934         estimate D2E/DX2                !
 ! R8    R(3,4)                  1.3705         estimate D2E/DX2                !
 ! R9    R(3,7)                  1.3347         estimate D2E/DX2                !
 ! R10   R(4,5)                  1.3577         estimate D2E/DX2                !
 ! R11   R(4,21)                 1.0757         estimate D2E/DX2                !
 ! R12   R(5,6)                  1.3698         estimate D2E/DX2                !
 ! R13   R(5,22)                 1.0758         estimate D2E/DX2                !
 ! R14   R(6,7)                  1.3325         estimate D2E/DX2                !
 ! R15   R(6,8)                  1.4535         estimate D2E/DX2                !
 ! R16   R(7,23)                 1.076          estimate D2E/DX2                !
 ! R17   R(8,24)                 1.0887         estimate D2E/DX2                !
 ! R18   R(8,25)                 1.0907         estimate D2E/DX2                !
 ! R19   R(8,26)                 1.0939         estimate D2E/DX2                !
 ! R20   R(9,10)                 1.3985         estimate D2E/DX2                !
 ! R21   R(9,15)                 1.1599         estimate D2E/DX2                !
 ! R22   R(10,11)                1.3923         estimate D2E/DX2                !
 ! R23   R(10,13)                1.3979         estimate D2E/DX2                !
 ! R24   R(11,12)                1.1638         estimate D2E/DX2                !
 ! R25   R(13,14)                1.1601         estimate D2E/DX2                !
 ! R26   R(14,26)                2.1918         estimate D2E/DX2                !
 ! R27   R(15,16)                2.3345         estimate D2E/DX2                !
 ! A1    A(2,1,16)             110.2433         estimate D2E/DX2                !
 ! A2    A(2,1,17)             109.0736         estimate D2E/DX2                !
 ! A3    A(2,1,18)             110.0672         estimate D2E/DX2                !
 ! A4    A(16,1,17)            109.3148         estimate D2E/DX2                !
 ! A5    A(16,1,18)            108.8159         estimate D2E/DX2                !
 ! A6    A(17,1,18)            109.3082         estimate D2E/DX2                !
 ! A7    A(1,2,3)              110.3527         estimate D2E/DX2                !
 ! A8    A(1,2,19)             111.0273         estimate D2E/DX2                !
 ! A9    A(1,2,20)             111.0355         estimate D2E/DX2                !
 ! A10   A(3,2,19)             107.7358         estimate D2E/DX2                !
 ! A11   A(3,2,20)             107.6216         estimate D2E/DX2                !
 ! A12   A(19,2,20)            108.9449         estimate D2E/DX2                !
 ! A13   A(2,3,4)              125.1991         estimate D2E/DX2                !
 ! A14   A(2,3,7)              125.2886         estimate D2E/DX2                !
 ! A15   A(4,3,7)              109.2504         estimate D2E/DX2                !
 ! A16   A(3,4,5)              106.8343         estimate D2E/DX2                !
 ! A17   A(3,4,21)             122.058          estimate D2E/DX2                !
 ! A18   A(5,4,21)             131.0656         estimate D2E/DX2                !
 ! A19   A(4,5,6)              106.9165         estimate D2E/DX2                !
 ! A20   A(4,5,22)             131.238          estimate D2E/DX2                !
 ! A21   A(6,5,22)             121.8157         estimate D2E/DX2                !
 ! A22   A(5,6,7)              109.3062         estimate D2E/DX2                !
 ! A23   A(5,6,8)              124.8596         estimate D2E/DX2                !
 ! A24   A(7,6,8)              125.6659         estimate D2E/DX2                !
 ! A25   A(3,7,6)              107.6723         estimate D2E/DX2                !
 ! A26   A(3,7,23)             126.1358         estimate D2E/DX2                !
 ! A27   A(6,7,23)             126.1685         estimate D2E/DX2                !
 ! A28   A(6,8,24)             108.7061         estimate D2E/DX2                !
 ! A29   A(6,8,25)             109.6536         estimate D2E/DX2                !
 ! A30   A(6,8,26)             108.4713         estimate D2E/DX2                !
 ! A31   A(24,8,25)            110.1769         estimate D2E/DX2                !
 ! A32   A(24,8,26)            109.8105         estimate D2E/DX2                !
 ! A33   A(25,8,26)            109.9883         estimate D2E/DX2                !
 ! A34   A(9,10,11)            117.3073         estimate D2E/DX2                !
 ! A35   A(9,10,13)            120.8479         estimate D2E/DX2                !
 ! A36   A(11,10,13)           117.723          estimate D2E/DX2                !
 ! A37   A(13,14,26)            92.8234         estimate D2E/DX2                !
 ! A38   A(9,15,16)             95.2396         estimate D2E/DX2                !
 ! A39   A(1,16,15)            147.6316         estimate D2E/DX2                !
 ! A40   A(8,26,14)            148.9068         estimate D2E/DX2                !
 ! A41   L(10,9,15,1,-1)       175.4461         estimate D2E/DX2                !
 ! A42   L(10,11,12,1,-1)      176.8266         estimate D2E/DX2                !
 ! A43   L(10,13,14,5,-1)      175.1395         estimate D2E/DX2                !
 ! A44   L(10,9,15,1,-2)       176.0644         estimate D2E/DX2                !
 ! A45   L(10,11,12,1,-2)      185.9878         estimate D2E/DX2                !
 ! A46   L(10,13,14,5,-2)      176.4304         estimate D2E/DX2                !
 ! D1    D(16,1,2,3)           -59.5682         estimate D2E/DX2                !
 ! D2    D(16,1,2,19)         -178.9543         estimate D2E/DX2                !
 ! D3    D(16,1,2,20)           59.6805         estimate D2E/DX2                !
 ! D4    D(17,1,2,3)          -179.6029         estimate D2E/DX2                !
 ! D5    D(17,1,2,19)           61.0109         estimate D2E/DX2                !
 ! D6    D(17,1,2,20)          -60.3542         estimate D2E/DX2                !
 ! D7    D(18,1,2,3)            60.478          estimate D2E/DX2                !
 ! D8    D(18,1,2,19)          -58.9082         estimate D2E/DX2                !
 ! D9    D(18,1,2,20)          179.7267         estimate D2E/DX2                !
 ! D10   D(2,1,16,15)           72.6404         estimate D2E/DX2                !
 ! D11   D(17,1,16,15)        -167.4705         estimate D2E/DX2                !
 ! D12   D(18,1,16,15)         -48.1579         estimate D2E/DX2                !
 ! D13   D(1,2,3,4)             84.2369         estimate D2E/DX2                !
 ! D14   D(1,2,3,7)            -89.2445         estimate D2E/DX2                !
 ! D15   D(19,2,3,4)          -154.4009         estimate D2E/DX2                !
 ! D16   D(19,2,3,7)            32.1177         estimate D2E/DX2                !
 ! D17   D(20,2,3,4)           -37.0635         estimate D2E/DX2                !
 ! D18   D(20,2,3,7)           149.4551         estimate D2E/DX2                !
 ! D19   D(2,3,4,5)           -175.6253         estimate D2E/DX2                !
 ! D20   D(2,3,4,21)             2.2605         estimate D2E/DX2                !
 ! D21   D(7,3,4,5)             -1.2582         estimate D2E/DX2                !
 ! D22   D(7,3,4,21)           176.6276         estimate D2E/DX2                !
 ! D23   D(2,3,7,6)            175.8458         estimate D2E/DX2                !
 ! D24   D(2,3,7,23)            -2.476          estimate D2E/DX2                !
 ! D25   D(4,3,7,6)              1.4849         estimate D2E/DX2                !
 ! D26   D(4,3,7,23)          -176.8369         estimate D2E/DX2                !
 ! D27   D(3,4,5,6)              0.5399         estimate D2E/DX2                !
 ! D28   D(3,4,5,22)           178.5314         estimate D2E/DX2                !
 ! D29   D(21,4,5,6)          -177.0835         estimate D2E/DX2                !
 ! D30   D(21,4,5,22)            0.908          estimate D2E/DX2                !
 ! D31   D(4,5,6,7)              0.36           estimate D2E/DX2                !
 ! D32   D(4,5,6,8)            175.8631         estimate D2E/DX2                !
 ! D33   D(22,5,6,7)          -177.8627         estimate D2E/DX2                !
 ! D34   D(22,5,6,8)            -2.3596         estimate D2E/DX2                !
 ! D35   D(5,6,7,3)             -1.1402         estimate D2E/DX2                !
 ! D36   D(5,6,7,23)           177.181          estimate D2E/DX2                !
 ! D37   D(8,6,7,3)           -176.5982         estimate D2E/DX2                !
 ! D38   D(8,6,7,23)             1.7229         estimate D2E/DX2                !
 ! D39   D(5,6,8,24)          -159.7517         estimate D2E/DX2                !
 ! D40   D(5,6,8,25)            79.7435         estimate D2E/DX2                !
 ! D41   D(5,6,8,26)           -40.388          estimate D2E/DX2                !
 ! D42   D(7,6,8,24)            15.0226         estimate D2E/DX2                !
 ! D43   D(7,6,8,25)          -105.4821         estimate D2E/DX2                !
 ! D44   D(7,6,8,26)           134.3863         estimate D2E/DX2                !
 ! D45   D(6,8,26,14)          -36.9215         estimate D2E/DX2                !
 ! D46   D(24,8,26,14)          81.7466         estimate D2E/DX2                !
 ! D47   D(25,8,26,14)        -156.8443         estimate D2E/DX2                !
 ! D48   D(9,10,14,26)         110.5301         estimate D2E/DX2                !
 ! D49   D(11,10,14,26)        -43.3936         estimate D2E/DX2                !
 ! D50   D(11,10,15,16)          6.2629         estimate D2E/DX2                !
 ! D51   D(13,10,15,16)       -147.777          estimate D2E/DX2                !
 ! D52   D(13,14,26,8)          -2.4519         estimate D2E/DX2                !
 ! D53   D(9,15,16,1)           20.7782         estimate D2E/DX2                !
 --------------------------------------------------------------------------------
 Trust Radius=3.00D-01 FncErr=1.00D-07 GrdErr=1.00D-06 EigMax=2.50D+02 EigMin=1.00D-04
 Number of steps in this run=    136 maximum allowed number of steps=    156.
 GradGradGradGradGradGradGradGradGradGradGradGradGradGradGradGradGradGrad

                          Input orientation:                          
 ---------------------------------------------------------------------
 Center     Atomic      Atomic             Coordinates (Angstroms)
 Number     Number       Type             X           Y           Z
 ---------------------------------------------------------------------
      1          6           0        2.866690   -0.629730   -0.566780
      2          6           0        2.716440    0.766570    0.026430
      3          7           0        1.323820    1.017940    0.387390
      4          6           0        0.731990    0.639210    1.564090
      5          6           0       -0.581400    0.969700    1.467860
      6          7           0       -0.761730    1.530490    0.231150
      7          6           0        0.399820    1.540340   -0.421720
      8          6           0       -2.043330    1.947420   -0.313090
      9          6           0       -0.034970   -2.092430    0.506360
     10          6           0       -0.949520   -1.576620   -0.417420
     11          6           0       -0.431540   -0.921760   -1.531520
     12          7           0        0.033920   -0.273430   -2.378570
     13          6           0       -2.259980   -1.274210   -0.036310
     14          7           0       -3.315320   -0.906320    0.274550
     15          7           0        0.774710   -2.411240    1.273300
     16          1           0        2.545900   -1.382070    0.153650
     17          1           0        3.912050   -0.797560   -0.821480
     18          1           0        2.257700   -0.721600   -1.465510
     19          1           0        3.017670    1.533080   -0.693060
     20          1           0        3.318070    0.874660    0.933040
     21          1           0        1.280460    0.143330    2.345320
     22          1           0       -1.399620    0.830620    2.152280
     23          1           0        0.558630    1.880570   -1.430040
     24          1           0       -1.958170    2.012150   -1.396480
     25          1           0       -2.319600    2.917800    0.101200
     26          1           0       -2.794140    1.198610   -0.044300
 ---------------------------------------------------------------------
                    Distance matrix (angstroms):
                    1          2          3          4          5
     1  C    0.000000
     2  C    1.524509   0.000000
     3  N    2.450654   1.460435   0.000000
     4  C    3.272271   2.513695   1.370519   0.000000
     5  C    4.311295   3.604821   2.190800   1.357747   0.000000
     6  N    4.297520   3.566953   2.153285   2.191417   1.369838
     7  C    3.288722   2.483201   1.334667   2.205859   2.204299
     8  C    5.551068   4.915800   3.562626   3.596890   2.502990
     9  C    3.422098   3.996808   3.396302   3.028015   3.255719
    10  C    3.934764   4.373420   3.542250   3.415225   3.189598
    11  C    3.448815   3.897107   3.244371   3.656943   3.549135
    12  N    3.381437   3.749872   3.313912   4.106675   4.088889
    13  C    5.194179   5.378985   4.275172   3.895426   3.180454
    14  N    6.245125   6.264364   5.023657   4.520210   3.523884
    15  N    3.306970   3.927273   3.584081   3.064576   3.647964
    16  H    1.089927   2.159149   2.703361   3.060259   4.127708
    17  H    1.088952   2.143580   3.384722   4.227060   5.343723
    18  H    1.089507   2.156612   2.707650   3.654869   4.418783
    19  H    2.171748   1.093592   2.074095   3.334376   4.235596
    20  H    2.171726   1.093428   2.072510   2.672353   3.937122
    21  H    3.405007   2.797806   2.144834   1.075656   2.217960
    22  H    5.265673   4.633065   3.250700   2.219542   1.075759
    23  H    3.517665   2.831686   2.152370   3.245896   3.244561
    24  H    5.563021   5.042630   3.865502   4.229291   3.344644
    25  H    6.318922   5.476776   4.118966   4.079733   2.946895
    26  H    5.971667   5.527943   4.144465   3.915794   2.689841
                    6          7          8          9         10
     6  N    0.000000
     7  C    1.332492   0.000000
     8  C    1.453453   2.479213   0.000000
     9  C    3.705330   3.774572   4.585346   0.000000
    10  C    3.179629   3.396495   3.691363   1.398510   0.000000
    11  C    3.038019   2.825730   3.509221   2.383420   1.392251
    12  N    3.270753   2.693122   3.676051   3.411206   2.551777
    13  C    3.191023   3.891628   3.240747   2.432004   1.397856
    14  N    3.529979   4.502577   3.179168   3.495896   2.554434
    15  N    4.357059   4.316088   5.427329   1.159922   2.555013
    16  H    4.407883   3.671129   5.688970   2.699983   3.547102
    17  H    5.326544   4.238083   6.577228   4.361057   4.940148
    18  H    4.131286   3.107666   5.191397   3.320208   3.480777
    19  H    3.890763   2.631885   5.092129   4.888920   5.048248
    20  H    4.191364   3.285527   5.607875   4.497617   5.103415
    21  H    3.250303   3.222371   4.622712   3.179741   3.945095
    22  H    2.141836   3.219808   2.782023   3.621539   3.549754
    23  H    2.150688   1.075958   2.832356   4.459455   3.905391
    24  H    2.076691   2.594779   1.088658   4.916002   3.854245
    25  H    2.090090   3.092909   1.090687   5.521421   4.727145
    26  H    2.077669   3.234286   1.093929   4.329803   3.353169
                   11         12         13         14         15
    11  C    0.000000
    12  N    1.163821   0.000000
    13  C    2.388109   3.427786   0.000000
    14  N    3.402692   4.319375   1.160052   0.000000
    15  N    3.397147   4.295946   3.495320   4.471088   0.000000
    16  H    3.452077   3.735139   4.810842   5.881739   2.334507
    17  H    4.402994   4.211785   6.240003   7.310813   4.103044
    18  H    2.697486   2.445349   4.770474   5.841274   3.543335
    19  H    4.315820   3.873911   6.013800   6.855195   4.945210
    20  H    4.833297   4.803177   6.055735   6.899809   4.169124
    21  H    4.369811   4.903334   4.496254   5.148888   2.816174
    22  H    4.192660   4.878787   3.156019   3.195737   4.001246
    23  H    2.973851   2.411378   4.454176   5.067531   5.076847
    24  H    3.310085   3.186973   3.569498   3.626522   5.844890
    25  H    4.579603   4.676779   4.194688   3.955427   6.272738
    26  H    3.505663   3.951410   2.529867   2.191808   5.244404
                   16         17         18         19         20
    16  H    0.000000
    17  H    1.777328   0.000000
    18  H    1.772275   1.776913   0.000000
    19  H    3.072065   2.499658   2.501563   0.000000
    20  H    2.509288   2.495490   3.070093   1.779876   0.000000
    21  H    2.954928   4.223643   4.028092   3.765774   2.584808
    22  H    4.945467   6.301433   5.373433   5.301119   4.872893
    23  H    4.135473   4.334530   3.107955   2.590515   3.769683
    24  H    5.848955   6.533344   5.025108   5.048098   5.878712
    25  H    6.493437   7.313597   6.054047   5.570884   6.053900
    26  H    5.934233   7.040006   5.588214   5.857465   6.198326
                   21         22         23         24         25
    21  H    0.000000
    22  H    2.773529   0.000000
    23  H    4.218102   4.215466   0.000000
    24  H    5.289828   3.781757   2.520461   0.000000
    25  H    5.068944   3.067509   3.421221   1.787143   0.000000
    26  H    4.840069   2.627749   3.691397   1.785801   1.789406
                   26
    26  H    0.000000
 Stoichiometry    C10H11N5
 Framework group  C1[X(C10H11N5)]
 Deg. of freedom    72
 Full point group                 C1      NOp   1
 Largest Abelian subgroup         C1      NOp   1
 Largest concise Abelian subgroup C1      NOp   1
                         Standard orientation:                         
 ---------------------------------------------------------------------
 Center     Atomic      Atomic             Coordinates (Angstroms)
 Number     Number       Type             X           Y           Z
 ---------------------------------------------------------------------
      1          6           0        2.866657    0.707032    0.578911
      2          6           0        2.767933   -0.695276   -0.010930
      3          7           0        1.386665   -0.995932   -0.377770
      4          6           0        0.787739   -0.641258   -1.558370
      5          6           0       -0.513816   -1.016972   -1.467421
      6          7           0       -0.680534   -1.580292   -0.229951
      7          6           0        0.477475   -1.547933    0.428459
      8          6           0       -1.949486   -2.040055    0.309405
      9          6           0       -0.078871    2.064947   -0.512272
     10          6           0       -0.979402    1.520177    0.408651
     11          6           0       -0.444375    0.886799    1.527107
     12          7           0        0.039233    0.257386    2.378248
     13          6           0       -2.276689    1.171314    0.022200
     14          7           0       -3.317077    0.766080   -0.292598
     15          7           0        0.722945    2.409620   -1.276282
     16          1           0        2.523399    1.445772   -0.145227
     17          1           0        3.904301    0.911826    0.838087
     18          1           0        2.250487    0.780132    1.474465
     19          1           0        3.092142   -1.448861    0.712217
     20          1           0        3.377350   -0.784865   -0.914350
     21          1           0        1.322417   -0.128749   -2.338428
     22          1           0       -1.333047   -0.908323   -2.156125
     23          1           0        0.643126   -1.879657    1.438511
     24          1           0       -1.867384   -2.098804    1.393372
     25          1           0       -2.189831   -3.020595   -0.103360
     26          1           0       -2.724568   -1.318560    0.034866
 ---------------------------------------------------------------------
 Rotational constants (GHZ):           0.8472098           0.6247153           0.5233575
 Standard basis: 6-311G(2d,d,p) (5D, 7F)
 There are   351 symmetry adapted cartesian basis functions of A   symmetry.
 There are   336 symmetry adapted basis functions of A   symmetry.
   336 basis functions,   568 primitive gaussians,   351 cartesian basis functions
    53 alpha electrons       53 beta electrons
       nuclear repulsion energy       975.5608111349 Hartrees.
 NAtoms=   26 NActive=   26 NUniq=   26 SFac= 1.00D+00 NAtFMM=   60 NAOKFM=F Big=F
 Integral buffers will be    131072 words long.
 Raffenetti 2 integral format.
 Two-electron integral symmetry is turned on.
 One-electron integrals computed using PRISM.
 NBasis=   336 RedAO= T EigKep=  6.39D-04  NBF=   336
 NBsUse=   336 1.00D-06 EigRej= -1.00D+00 NBFU=   336
 ExpMin= 1.03D-01 ExpMax= 6.29D+03 ExpMxC= 9.49D+02 IAcc=3 IRadAn=         5 AccDes= 0.00D+00
 Harris functional with IExCor=  402 and IRadAn=       5 diagonalized for initial guess.
 HarFok:  IExCor=  402 AccDes= 0.00D+00 IRadAn=         5 IDoV= 1 UseB2=F ITyADJ=14
 ICtDFT=  3500011 ScaDFX=  1.000000  1.000000  1.000000  1.000000
 FoFCou: FMM=F IPFlag=           0 FMFlag=      100000 FMFlg1=           0
         NFxFlg=           0 DoJE=T BraDBF=F KetDBF=T FulRan=T
         wScrn=  0.000000 ICntrl=       500 IOpCl=  0 I1Cent=   200000004 NGrid=           0
         NMat0=    1 NMatS0=      1 NMatT0=    0 NMatD0=    1 NMtDS0=    0 NMtDT0=    0
 Petite list used in FoFCou.
 Requested convergence on RMS density matrix=1.00D-08 within 128 cycles.
 Requested convergence on MAX density matrix=1.00D-06.
 Requested convergence on             energy=1.00D-06.
 No special actions if energy rises.
 Integral accuracy reduced to 1.0D-05 until final iterations.
 Initial convergence to 1.0D-05 achieved.  Increase integral accuracy.
 SCF Done:  E(RB3LYP) =  -661.526162078     A.U. after   15 cycles
            NFock= 15  Conv=0.89D-08     -V/T= 2.0033

 **********************************************************************

            Population analysis using the SCF Density.

 **********************************************************************

 Orbital symmetries:
       Occupied  (A) (A) (A) (A) (A) (A) (A) (A) (A) (A) (A) (A)
                 (A) (A) (A) (A) (A) (A) (A) (A) (A) (A) (A) (A)
                 (A) (A) (A) (A) (A) (A) (A) (A) (A) (A) (A) (A)
                 (A) (A) (A) (A) (A) (A) (A) (A) (A) (A) (A) (A)
                 (A) (A) (A) (A) (A)
       Virtual   (A) (A) (A) (A) (A) (A) (A) (A) (A) (A) (A) (A)
                 (A) (A) (A) (A) (A) (A) (A) (A) (A) (A) (A) (A)
                 (A) (A) (A) (A) (A) (A) (A) (A) (A) (A) (A) (A)
                 (A) (A) (A) (A) (A) (A) (A) (A) (A) (A) (A) (A)
                 (A) (A) (A) (A) (A) (A) (A) (A) (A) (A) (A) (A)
                 (A) (A) (A) (A) (A) (A) (A) (A) (A) (A) (A) (A)
                 (A) (A) (A) (A) (A) (A) (A) (A) (A) (A) (A) (A)
                 (A) (A) (A) (A) (A) (A) (A) (A) (A) (A) (A) (A)
                 (A) (A) (A) (A) (A) (A) (A) (A) (A) (A) (A) (A)
                 (A) (A) (A) (A) (A) (A) (A) (A) (A) (A) (A) (A)
                 (A) (A) (A) (A) (A) (A) (A) (A) (A) (A) (A) (A)
                 (A) (A) (A) (A) (A) (A) (A) (A) (A) (A) (A) (A)
                 (A) (A) (A) (A) (A) (A) (A) (A) (A) (A) (A) (A)
                 (A) (A) (A) (A) (A) (A) (A) (A) (A) (A) (A) (A)
                 (A) (A) (A) (A) (A) (A) (A) (A) (A) (A) (A) (A)
                 (A) (A) (A) (A) (A) (A) (A) (A) (A) (A) (A) (A)
                 (A) (A) (A) (A) (A) (A) (A) (A) (A) (A) (A) (A)
                 (A) (A) (A) (A) (A) (A) (A) (A) (A) (A) (A) (A)
                 (A) (A) (A) (A) (A) (A) (A) (A) (A) (A) (A) (A)
                 (A) (A) (A) (A) (A) (A) (A) (A) (A) (A) (A) (A)
                 (A) (A) (A) (A) (A) (A) (A) (A) (A) (A) (A) (A)
                 (A) (A) (A) (A) (A) (A) (A) (A) (A) (A) (A) (A)
                 (A) (A) (A) (A) (A) (A) (A) (A) (A) (A) (A) (A)
                 (A) (A) (A) (A) (A) (A) (A)
 The electronic state is 1-A.
 Alpha  occ. eigenvalues --  -14.43574 -14.43286 -14.29250 -14.28642 -14.28516
 Alpha  occ. eigenvalues --  -10.29992 -10.25583 -10.25134 -10.25014 -10.24049
 Alpha  occ. eigenvalues --  -10.20642 -10.20282 -10.19866 -10.19701 -10.17538
 Alpha  occ. eigenvalues --   -1.11332  -0.99532  -0.91194  -0.89454  -0.89023
 Alpha  occ. eigenvalues --   -0.84291  -0.81205  -0.79215  -0.76316  -0.69327
 Alpha  occ. eigenvalues --   -0.66956  -0.64472  -0.59051  -0.57820  -0.57515
 Alpha  occ. eigenvalues --   -0.54084  -0.51881  -0.51551  -0.50342  -0.49136
 Alpha  occ. eigenvalues --   -0.47458  -0.46683  -0.44211  -0.42216  -0.40999
 Alpha  occ. eigenvalues --   -0.39628  -0.38944  -0.36764  -0.35804  -0.35687
 Alpha  occ. eigenvalues --   -0.34804  -0.34210  -0.33238  -0.32954  -0.32539
 Alpha  occ. eigenvalues --   -0.31624  -0.28470  -0.20546
 Alpha virt. eigenvalues --   -0.04839  -0.01751   0.00268   0.01821   0.02598
 Alpha virt. eigenvalues --    0.03499   0.03969   0.04652   0.05314   0.05943
 Alpha virt. eigenvalues --    0.07464   0.07835   0.09561   0.09662   0.10627
 Alpha virt. eigenvalues --    0.10991   0.11668   0.12480   0.13726   0.14066
 Alpha virt. eigenvalues --    0.16984   0.17638   0.19068   0.19686   0.20357
 Alpha virt. eigenvalues --    0.22184   0.23621   0.23890   0.24394   0.26844
 Alpha virt. eigenvalues --    0.27045   0.29105   0.30624   0.32130   0.33134
 Alpha virt. eigenvalues --    0.33958   0.35431   0.35957   0.36807   0.38887
 Alpha virt. eigenvalues --    0.39685   0.41434   0.41497   0.42425   0.44158
 Alpha virt. eigenvalues --    0.45647   0.46641   0.47059   0.48286   0.48622
 Alpha virt. eigenvalues --    0.50573   0.51111   0.51938   0.52798   0.53098
 Alpha virt. eigenvalues --    0.53692   0.54551   0.55469   0.55777   0.56226
 Alpha virt. eigenvalues --    0.57192   0.58576   0.59520   0.60247   0.61407
 Alpha virt. eigenvalues --    0.62319   0.63135   0.63176   0.64032   0.65074
 Alpha virt. eigenvalues --    0.65794   0.66412   0.68555   0.68711   0.70038
 Alpha virt. eigenvalues --    0.71962   0.72701   0.74729   0.76236   0.76495
 Alpha virt. eigenvalues --    0.78054   0.80381   0.81123   0.83193   0.84378
 Alpha virt. eigenvalues --    0.85762   0.87189   0.88980   0.90168   0.90258
 Alpha virt. eigenvalues --    0.92680   0.93157   0.94426   0.96543   0.97377
 Alpha virt. eigenvalues --    1.00947   1.01616   1.03129   1.07810   1.08305
 Alpha virt. eigenvalues --    1.08529   1.11069   1.12458   1.16116   1.17439
 Alpha virt. eigenvalues --    1.19209   1.21109   1.22422   1.24520   1.24919
 Alpha virt. eigenvalues --    1.26603   1.28497   1.30603   1.31512   1.34230
 Alpha virt. eigenvalues --    1.35238   1.37402   1.39023   1.39359   1.40463
 Alpha virt. eigenvalues --    1.41952   1.43600   1.44352   1.46087   1.47362
 Alpha virt. eigenvalues --    1.47876   1.48963   1.51221   1.52608   1.53450
 Alpha virt. eigenvalues --    1.54843   1.55226   1.56635   1.57481   1.58328
 Alpha virt. eigenvalues --    1.58682   1.59473   1.60351   1.61069   1.62602
 Alpha virt. eigenvalues --    1.64074   1.65877   1.66442   1.67440   1.68910
 Alpha virt. eigenvalues --    1.70080   1.71897   1.74239   1.76163   1.77379
 Alpha virt. eigenvalues --    1.78586   1.79279   1.81532   1.86008   1.91529
 Alpha virt. eigenvalues --    1.94381   1.95010   1.96230   1.96919   1.98929
 Alpha virt. eigenvalues --    1.99752   2.00817   2.03859   2.05687   2.05949
 Alpha virt. eigenvalues --    2.08002   2.09145   2.09807   2.11482   2.12068
 Alpha virt. eigenvalues --    2.12907   2.13592   2.14927   2.15656   2.16451
 Alpha virt. eigenvalues --    2.20868   2.21717   2.23155   2.25280   2.27176
 Alpha virt. eigenvalues --    2.30225   2.36065   2.37007   2.38260   2.41016
 Alpha virt. eigenvalues --    2.42355   2.42940   2.45852   2.46443   2.47066
 Alpha virt. eigenvalues --    2.48377   2.49884   2.51249   2.51913   2.53353
 Alpha virt. eigenvalues --    2.54034   2.54482   2.55167   2.57547   2.59765
 Alpha virt. eigenvalues --    2.60037   2.60720   2.62184   2.64098   2.64361
 Alpha virt. eigenvalues --    2.66603   2.70931   2.71773   2.73324   2.75683
 Alpha virt. eigenvalues --    2.75888   2.78673   2.79836   2.82467   2.83963
 Alpha virt. eigenvalues --    2.84228   2.85863   2.87299   2.89116   2.90340
 Alpha virt. eigenvalues --    2.92007   2.94081   2.95751   2.97419   2.98237
 Alpha virt. eigenvalues --    2.99818   3.00388   3.05902   3.08687   3.11923
 Alpha virt. eigenvalues --    3.12870   3.14125   3.15119   3.21262   3.22249
 Alpha virt. eigenvalues --    3.25000   3.33992   3.44367   3.52346   3.54125
 Alpha virt. eigenvalues --    3.59380   3.65916   3.69484   3.74564   3.76591
 Alpha virt. eigenvalues --    3.78756   3.79899   3.80730   3.83117   3.84217
 Alpha virt. eigenvalues --    3.85616   3.89139   3.92244   3.93291   3.95391
 Alpha virt. eigenvalues --    3.97289   4.01886   4.03094   4.04006   4.06348
 Alpha virt. eigenvalues --    4.21329   4.54102   4.59542   4.60326   4.70743
 Alpha virt. eigenvalues --    4.91629   4.94102   5.22422  23.56235  23.69668
 Alpha virt. eigenvalues --   23.80780  23.85570  23.88160  23.92484  24.15319
 Alpha virt. eigenvalues --   24.46587  24.51029  24.52348  35.43428  35.57476
 Alpha virt. eigenvalues --   35.83517  35.85569  35.86124
          Condensed to atoms (all electrons):
               1          2          3          4          5          6
     1  C    4.921142   0.358834  -0.066148  -0.003538  -0.000498  -0.000189
     2  C    0.358834   4.865205   0.267164  -0.047559   0.006639   0.004421
     3  N   -0.066148   0.267164   6.495025   0.402567  -0.061553  -0.064398
     4  C   -0.003538  -0.047559   0.402567   4.824876   0.603402  -0.060889
     5  C   -0.000498   0.006639  -0.061553   0.603402   4.834966   0.408398
     6  N   -0.000189   0.004421  -0.064398  -0.060889   0.408398   6.448738
     7  C   -0.005405  -0.052524   0.431798  -0.140332  -0.136356   0.440371
     8  C    0.000010  -0.000093   0.004890   0.007489  -0.050022   0.264113
     9  C   -0.004768  -0.000457  -0.002229  -0.005498  -0.008538   0.000330
    10  C   -0.002966   0.000393   0.004306  -0.015188  -0.007691   0.001180
    11  C   -0.004597  -0.000010  -0.007589   0.001562   0.002815  -0.013466
    12  N   -0.007324   0.001171  -0.007694   0.001114   0.000463  -0.007707
    13  C    0.000029   0.000004  -0.000297   0.000010  -0.002298  -0.002406
    14  N    0.000000   0.000000  -0.000007   0.000199  -0.000463  -0.001556
    15  N   -0.010004   0.000283  -0.002543   0.000897  -0.003146  -0.000033
    16  H    0.400146  -0.032347  -0.003442   0.002998  -0.000616   0.000095
    17  H    0.394934  -0.031682   0.005945   0.000005   0.000018  -0.000001
    18  H    0.402684  -0.033317  -0.002627  -0.001108   0.000204  -0.000150
    19  H   -0.036120   0.405647  -0.024495   0.006402  -0.000697   0.000381
    20  H   -0.037791   0.407646  -0.025215  -0.007660   0.001082  -0.000348
    21  H   -0.000307  -0.003443  -0.030132   0.415717  -0.030843   0.002998
    22  H    0.000016  -0.000134   0.003020  -0.030928   0.418284  -0.030193
    23  H   -0.000181  -0.001604  -0.025527   0.003040   0.003041  -0.024911
    24  H    0.000004  -0.000031   0.000387  -0.000525   0.005588  -0.021047
    25  H    0.000001   0.000013  -0.000146   0.000109  -0.002399  -0.030783
    26  H   -0.000003   0.000007  -0.000103   0.000609  -0.006135  -0.024514
               7          8          9         10         11         12
     1  C   -0.005405   0.000010  -0.004768  -0.002966  -0.004597  -0.007324
     2  C   -0.052524  -0.000093  -0.000457   0.000393  -0.000010   0.001171
     3  N    0.431798   0.004890  -0.002229   0.004306  -0.007589  -0.007694
     4  C   -0.140332   0.007489  -0.005498  -0.015188   0.001562   0.001114
     5  C   -0.136356  -0.050022  -0.008538  -0.007691   0.002815   0.000463
     6  N    0.440371   0.264113   0.000330   0.001180  -0.013466  -0.007707
     7  C    4.828784  -0.052477   0.002477  -0.013327   0.000665   0.002849
     8  C   -0.052477   4.854952   0.000069  -0.002249  -0.000602  -0.000244
     9  C    0.002477   0.000069   4.772997   0.272776  -0.060367   0.001605
    10  C   -0.013327  -0.002249   0.272776   5.689988   0.303161  -0.118085
    11  C    0.000665  -0.000602  -0.060367   0.303161   4.787605   0.939602
    12  N    0.002849  -0.000244   0.001605  -0.118085   0.939602   6.500700
    13  C    0.000975  -0.008573  -0.058530   0.258898  -0.067573   0.002099
    14  N    0.000228  -0.019204   0.001750  -0.119621   0.000328   0.000148
    15  N    0.000584  -0.000006   0.983327  -0.115111   0.000437   0.000145
    16  H   -0.000976   0.000002  -0.002624   0.003228  -0.000694  -0.000100
    17  H    0.000135  -0.000000   0.000389  -0.000124   0.000266   0.000151
    18  H    0.001990   0.000006  -0.000842   0.002747  -0.000549   0.014993
    19  H   -0.007320  -0.000020  -0.000070  -0.000013   0.000043  -0.000264
    20  H    0.005725   0.000014   0.000052  -0.000013  -0.000046  -0.000037
    21  H    0.006462  -0.000133   0.000180  -0.000332  -0.000046   0.000050
    22  H    0.006935  -0.004922   0.000397  -0.002787   0.000175   0.000056
    23  H    0.410694  -0.003007   0.000013   0.000788  -0.003893   0.016981
    24  H   -0.007847   0.401317   0.000078  -0.000558   0.001458   0.004029
    25  H   -0.000381   0.400794  -0.000005  -0.000048   0.000087  -0.000022
    26  H    0.002268   0.386651   0.000235   0.001110  -0.000971   0.000604
              13         14         15         16         17         18
     1  C    0.000029   0.000000  -0.010004   0.400146   0.394934   0.402684
     2  C    0.000004   0.000000   0.000283  -0.032347  -0.031682  -0.033317
     3  N   -0.000297  -0.000007  -0.002543  -0.003442   0.005945  -0.002627
     4  C    0.000010   0.000199   0.000897   0.002998   0.000005  -0.001108
     5  C   -0.002298  -0.000463  -0.003146  -0.000616   0.000018   0.000204
     6  N   -0.002406  -0.001556  -0.000033   0.000095  -0.000001  -0.000150
     7  C    0.000975   0.000228   0.000584  -0.000976   0.000135   0.001990
     8  C   -0.008573  -0.019204  -0.000006   0.000002  -0.000000   0.000006
     9  C   -0.058530   0.001750   0.983327  -0.002624   0.000389  -0.000842
    10  C    0.258898  -0.119621  -0.115111   0.003228  -0.000124   0.002747
    11  C   -0.067573   0.000328   0.000437  -0.000694   0.000266  -0.000549
    12  N    0.002099   0.000148   0.000145  -0.000100   0.000151   0.014993
    13  C    4.783445   0.995174   0.002105   0.000083   0.000000   0.000108
    14  N    0.995174   6.411307   0.000085   0.000000   0.000000  -0.000001
    15  N    0.002105   0.000085   6.425669   0.022744   0.000225  -0.000487
    16  H    0.000083   0.000000   0.022744   0.505314  -0.020082  -0.022479
    17  H    0.000000   0.000000   0.000225  -0.020082   0.562686  -0.020936
    18  H    0.000108  -0.000001  -0.000487  -0.022479  -0.020936   0.516168
    19  H   -0.000002  -0.000000  -0.000033   0.006752  -0.003838  -0.006915
    20  H    0.000001   0.000000  -0.000174  -0.006821  -0.003431   0.007040
    21  H    0.000064   0.000028   0.010997   0.001602  -0.000080  -0.000100
    22  H    0.002115   0.004495   0.000463   0.000000  -0.000000   0.000002
    23  H    0.000065   0.000023   0.000021  -0.000072  -0.000045   0.001134
    24  H    0.000036   0.000295   0.000002   0.000001   0.000000   0.000006
    25  H    0.000630   0.000243  -0.000000  -0.000000  -0.000000  -0.000002
    26  H   -0.002874   0.040003   0.000030   0.000002   0.000000   0.000000
              19         20         21         22         23         24
     1  C   -0.036120  -0.037791  -0.000307   0.000016  -0.000181   0.000004
     2  C    0.405647   0.407646  -0.003443  -0.000134  -0.001604  -0.000031
     3  N   -0.024495  -0.025215  -0.030132   0.003020  -0.025527   0.000387
     4  C    0.006402  -0.007660   0.415717  -0.030928   0.003040  -0.000525
     5  C   -0.000697   0.001082  -0.030843   0.418284   0.003041   0.005588
     6  N    0.000381  -0.000348   0.002998  -0.030193  -0.024911  -0.021047
     7  C   -0.007320   0.005725   0.006462   0.006935   0.410694  -0.007847
     8  C   -0.000020   0.000014  -0.000133  -0.004922  -0.003007   0.401317
     9  C   -0.000070   0.000052   0.000180   0.000397   0.000013   0.000078
    10  C   -0.000013  -0.000013  -0.000332  -0.002787   0.000788  -0.000558
    11  C    0.000043  -0.000046  -0.000046   0.000175  -0.003893   0.001458
    12  N   -0.000264  -0.000037   0.000050   0.000056   0.016981   0.004029
    13  C   -0.000002   0.000001   0.000064   0.002115   0.000065   0.000036
    14  N   -0.000000   0.000000   0.000028   0.004495   0.000023   0.000295
    15  N   -0.000033  -0.000174   0.010997   0.000463   0.000021   0.000002
    16  H    0.006752  -0.006821   0.001602   0.000000  -0.000072   0.000001
    17  H   -0.003838  -0.003431  -0.000080  -0.000000  -0.000045   0.000000
    18  H   -0.006915   0.007040  -0.000100   0.000002   0.001134   0.000006
    19  H    0.558351  -0.030888   0.000107   0.000014   0.000687   0.000003
    20  H   -0.030888   0.551942   0.000584   0.000006  -0.000044   0.000002
    21  H    0.000107   0.000584   0.475976  -0.001081  -0.000110   0.000017
    22  H    0.000014   0.000006  -0.001081   0.479684  -0.000093   0.000133
    23  H    0.000687  -0.000044  -0.000110  -0.000093   0.443474   0.001953
    24  H    0.000003   0.000002   0.000017   0.000133   0.001953   0.513589
    25  H   -0.000005  -0.000002   0.000016   0.000206  -0.000035  -0.024926
    26  H    0.000002  -0.000000  -0.000007   0.001742   0.000000  -0.015457
              25         26
     1  C    0.000001  -0.000003
     2  C    0.000013   0.000007
     3  N   -0.000146  -0.000103
     4  C    0.000109   0.000609
     5  C   -0.002399  -0.006135
     6  N   -0.030783  -0.024514
     7  C   -0.000381   0.002268
     8  C    0.400794   0.386651
     9  C   -0.000005   0.000235
    10  C   -0.000048   0.001110
    11  C    0.000087  -0.000971
    12  N   -0.000022   0.000604
    13  C    0.000630  -0.002874
    14  N    0.000243   0.040003
    15  N   -0.000000   0.000030
    16  H   -0.000000   0.000002
    17  H   -0.000000   0.000000
    18  H   -0.000002   0.000000
    19  H   -0.000005   0.000002
    20  H   -0.000002  -0.000000
    21  H    0.000016  -0.000007
    22  H    0.000206   0.001742
    23  H   -0.000035   0.000000
    24  H   -0.024926  -0.015457
    25  H    0.538021  -0.023404
    26  H   -0.023404   0.464152
 Mulliken charges:
               1
     1  C   -0.297960
     2  C   -0.114226
     3  N   -0.290957
     4  C    0.042230
     5  C    0.026357
     6  N   -0.288433
     7  C    0.274003
     8  C   -0.178755
     9  C    0.107255
    10  C   -0.140460
    11  C    0.122199
    12  N   -0.345281
    13  C    0.096711
    14  N   -0.313455
    15  N   -0.316476
    16  H    0.147284
    17  H    0.115466
    18  H    0.142430
    19  H    0.132289
    20  H    0.138375
    21  H    0.151817
    22  H    0.152395
    23  H    0.177607
    24  H    0.141492
    25  H    0.142039
    26  H    0.176054
 Sum of Mulliken charges =  -0.00000
 Mulliken charges with hydrogens summed into heavy atoms:
               1
     1  C    0.107221
     2  C    0.156438
     3  N   -0.290957
     4  C    0.194047
     5  C    0.178752
     6  N   -0.288433
     7  C    0.451610
     8  C    0.280830
     9  C    0.107255
    10  C   -0.140460
    11  C    0.122199
    12  N   -0.345281
    13  C    0.096711
    14  N   -0.313455
    15  N   -0.316476
 Electronic spatial extent (au):  <R**2>=           2520.8832
 Charge=             -0.0000 electrons
 Dipole moment (field-independent basis, Debye):
    X=              4.2767    Y=             -7.9734    Z=             -1.4444  Tot=              9.1625
 Quadrupole moment (field-independent basis, Debye-Ang):
   XX=            -91.6668   YY=            -90.3710   ZZ=            -93.9820
   XY=              2.6564   XZ=             -0.2919   YZ=              2.4300
 Traceless Quadrupole moment (field-independent basis, Debye-Ang):
   XX=              0.3398   YY=              1.6356   ZZ=             -1.9754
   XY=              2.6564   XZ=             -0.2919   YZ=              2.4300
 Octapole moment (field-independent basis, Debye-Ang**2):
  XXX=             94.9073  YYY=            -50.7628  ZZZ=            -35.4619  XYY=            -12.8535
  XXY=            -34.7808  XXZ=              6.7687  XZZ=             -1.2481  YZZ=            -19.3388
  YYZ=             21.4390  XYZ=              2.7977
 Hexadecapole moment (field-independent basis, Debye-Ang**3):
 XXXX=          -1851.1241 YYYY=          -1133.7753 ZZZZ=           -735.1474 XXXY=             63.0994
 XXXZ=            -27.0816 YYYX=              7.3152 YYYZ=             17.1188 ZZZX=             -2.8911
 ZZZY=             -0.1965 XXYY=           -454.6043 XXZZ=           -380.4801 YYZZ=           -312.5458
 XXYZ=              7.3508 YYXZ=             22.3993 ZZXY=             -2.4573
 N-N= 9.755608111349D+02 E-N=-3.489557853660D+03  KE= 6.593317782916D+02
 Calling FoFJK, ICntrl=      2127 FMM=F ISym2X=0 I1Cent= 0 IOpClX= 0 NMat=1 NMatS=1 NMatT=0.
 ***** Axes restored to original set *****
 -------------------------------------------------------------------
 Center     Atomic                   Forces (Hartrees/Bohr)
 Number     Number              X              Y              Z
 -------------------------------------------------------------------
      1        6           0.003964759    0.000209863    0.000186849
      2        6           0.006297321   -0.004375990   -0.004390276
      3        7           0.004695719    0.006368722   -0.002746578
      4        6          -0.003238444    0.002461440    0.010555617
      5        6           0.002563593   -0.000358214    0.010707060
      6        7          -0.002326328    0.004352910   -0.006281250
      7        6           0.001111519    0.006975678    0.005170151
      8        6          -0.007556048    0.005292321   -0.001131659
      9        6          -0.000400393   -0.004063151    0.002630627
     10        6          -0.000423534   -0.004019573   -0.001275504
     11        6          -0.000068448   -0.000006843   -0.008211942
     12        7          -0.001857905   -0.004329006   -0.008931830
     13        6          -0.002027767   -0.002386702    0.000785531
     14        7          -0.007645530   -0.002548114    0.002109477
     15        7           0.001445533   -0.006464031    0.003949017
     16        1           0.002261739   -0.000422028   -0.001445549
     17        1           0.002239892   -0.001145361   -0.000905762
     18        1           0.002357718   -0.000927956   -0.000278365
     19        1           0.000072613    0.000286088    0.002705754
     20        1          -0.001072270    0.002275095   -0.001565303
     21        1          -0.000867080   -0.000114257   -0.000682354
     22        1           0.000144334   -0.000795964   -0.000464605
     23        1          -0.000221038   -0.000458476    0.002246571
     24        1          -0.000933504   -0.000068106    0.000273962
     25        1          -0.000198551    0.001224429   -0.000873187
     26        1           0.001682100    0.003037226   -0.002136452
 -------------------------------------------------------------------
 Cartesian Forces:  Max     0.010707060 RMS     0.003677565

 GradGradGradGradGradGradGradGradGradGradGradGradGradGradGradGradGradGrad
 Berny optimization.
 FormGI is forming the generalized inverse of G from B-inverse, IUseBI=4.
 Internal  Forces:  Max     0.028371068 RMS     0.007107966
 Search for a local minimum.
 Step number   1 out of a maximum of  136
 All quantities printed in internal units (Hartrees-Bohrs-Radians)
 Mixed Optimization -- RFO/linear search
 Second derivative matrix not updated -- first step.
 ITU=  0
     Eigenvalues ---    0.00237   0.00238   0.00496   0.00668   0.01040
     Eigenvalues ---    0.01101   0.01461   0.01818   0.01874   0.02189
     Eigenvalues ---    0.02302   0.02464   0.02534   0.02572   0.03097
     Eigenvalues ---    0.03144   0.03397   0.03852   0.04557   0.04655
     Eigenvalues ---    0.04816   0.04816   0.05265   0.05520   0.06343
     Eigenvalues ---    0.07150   0.08030   0.08715   0.09272   0.09713
     Eigenvalues ---    0.10929   0.11088   0.12899   0.13266   0.13520
     Eigenvalues ---    0.15977   0.15988   0.15989   0.17363   0.18876
     Eigenvalues ---    0.20210   0.22600   0.22955   0.23442   0.24044
     Eigenvalues ---    0.24704   0.24909   0.29826   0.34166   0.34401
     Eigenvalues ---    0.34420   0.34702   0.34733   0.34870   0.34934
     Eigenvalues ---    0.34968   0.36374   0.36487   0.36512   0.36524
     Eigenvalues ---    0.37476   0.45049   0.45140   0.45795   0.46817
     Eigenvalues ---    0.46929   0.51359   0.55993   0.57219   1.24672
     Eigenvalues ---    1.25326   1.27338
 RFO step:  Lambda=-5.84710851D-02 EMin= 2.36519992D-03
 Linear search not attempted -- first point.
 Maximum step size (   0.300) exceeded in Quadratic search.
    -- Step size scaled by   0.814
 Iteration  1 RMS(Cart)=  0.24211942 RMS(Int)=  0.02637483
 Iteration  2 RMS(Cart)=  0.09671390 RMS(Int)=  0.00386728
 Iteration  3 RMS(Cart)=  0.00571355 RMS(Int)=  0.00228024
 Iteration  4 RMS(Cart)=  0.00003705 RMS(Int)=  0.00228018
 Iteration  5 RMS(Cart)=  0.00000004 RMS(Int)=  0.00228018
 Variable       Old X    -DE/DX   Delta X   Delta X   Delta X     New X
                                 (Linear)    (Quad)   (Total)
    R1        2.88090   0.01410   0.00000   0.03192   0.03139   2.91229
    R2        2.05966   0.00447   0.00000   0.00787   0.00885   2.06851
    R3        2.05782   0.00254   0.00000   0.00507   0.00507   2.06289
    R4        2.05887  -0.00101   0.00000  -0.00202  -0.00202   2.05685
    R5        2.75982   0.01421   0.00000   0.02692   0.02483   2.78465
    R6        2.06659  -0.00156   0.00000  -0.00316  -0.00316   2.06343
    R7        2.06628  -0.00166   0.00000  -0.00336  -0.00336   2.06292
    R8        2.58991   0.01029   0.00000   0.01534   0.01507   2.60497
    R9        2.52216   0.00625   0.00000   0.00671   0.00551   2.52767
   R10        2.56577   0.00164   0.00000   0.00311   0.00306   2.56883
   R11        2.03270  -0.00089   0.00000  -0.00170  -0.00170   2.03099
   R12        2.58862   0.01029   0.00000   0.01479   0.01507   2.60369
   R13        2.03289  -0.00030   0.00000  -0.00058  -0.00058   2.03231
   R14        2.51804   0.00619   0.00000   0.00713   0.00527   2.52331
   R15        2.74663   0.01211   0.00000   0.02182   0.02026   2.76689
   R16        2.03327  -0.00228   0.00000  -0.00439  -0.00439   2.02887
   R17        2.05727  -0.00035   0.00000  -0.00070  -0.00070   2.05657
   R18        2.06110   0.00081   0.00000   0.00162   0.00162   2.06272
   R19        2.06723   0.00797   0.00000   0.01654   0.01509   2.08231
   R20        2.64280   0.01231   0.00000   0.02034   0.02149   2.66430
   R21        2.19193   0.00993   0.00000   0.00642   0.00739   2.19933
   R22        2.63097   0.01091   0.00000   0.01684   0.01684   2.64781
   R23        2.64157   0.00873   0.00000   0.01384   0.01586   2.65743
   R24        2.19930   0.00335   0.00000   0.00208   0.00208   2.20138
   R25        2.19218   0.00817   0.00000   0.00504   0.00695   2.19913
   R26        4.14192   0.01399   0.00000   0.12875   0.12823   4.27014
   R27        4.41158   0.00703   0.00000   0.06511   0.06689   4.47847
    A1        1.92411   0.00589   0.00000   0.03829   0.04185   1.96596
    A2        1.90369  -0.00096   0.00000  -0.00735  -0.00772   1.89597
    A3        1.92104   0.00007   0.00000  -0.00000  -0.00142   1.91961
    A4        1.90790  -0.00033   0.00000  -0.00096  -0.00284   1.90507
    A5        1.89920  -0.00405   0.00000  -0.02164  -0.02233   1.87686
    A6        1.90779  -0.00065   0.00000  -0.00864  -0.00841   1.89938
    A7        1.92602   0.00972   0.00000   0.04224   0.03854   1.96456
    A8        1.93779  -0.00370   0.00000  -0.01722  -0.01688   1.92091
    A9        1.93793   0.00137   0.00000   0.01171   0.01332   1.95125
   A10        1.88034  -0.00121   0.00000  -0.00297  -0.00232   1.87802
   A11        1.87835  -0.00633   0.00000  -0.02583  -0.02454   1.85382
   A12        1.90145  -0.00010   0.00000  -0.00910  -0.00968   1.89176
   A13        2.18514  -0.00071   0.00000   0.00280   0.00497   2.19010
   A14        2.18670   0.00512   0.00000   0.00915   0.00616   2.19286
   A15        1.90678  -0.00452   0.00000  -0.01263  -0.01190   1.89488
   A16        1.86461   0.00215   0.00000   0.00569   0.00464   1.86925
   A17        2.13031  -0.00069   0.00000  -0.00168  -0.00128   2.12904
   A18        2.28753  -0.00158   0.00000  -0.00492  -0.00456   2.28297
   A19        1.86605   0.00185   0.00000   0.00366   0.00296   1.86901
   A20        2.29053  -0.00117   0.00000  -0.00308  -0.00304   2.28750
   A21        2.12609  -0.00078   0.00000  -0.00162  -0.00153   2.12456
   A22        1.90775  -0.00434   0.00000  -0.01138  -0.01107   1.89668
   A23        2.17921  -0.00127   0.00000   0.00284   0.00331   2.18252
   A24        2.19328   0.00552   0.00000   0.00774   0.00684   2.20012
   A25        1.87924   0.00503   0.00000   0.01609   0.01492   1.89416
   A26        2.20148  -0.00267   0.00000  -0.00913  -0.00945   2.19204
   A27        2.20206  -0.00255   0.00000  -0.00861  -0.00890   2.19315
   A28        1.89728   0.00358   0.00000   0.00805   0.00851   1.90579
   A29        1.91382  -0.00092   0.00000  -0.00475  -0.00285   1.91096
   A30        1.89318  -0.00318   0.00000   0.00522   0.00031   1.89349
   A31        1.92295  -0.00089   0.00000  -0.00403  -0.00433   1.91862
   A32        1.91656  -0.00100   0.00000  -0.00338  -0.00218   1.91437
   A33        1.91966   0.00239   0.00000  -0.00088   0.00069   1.92035
   A34        2.04740   0.01519   0.00000   0.05176   0.05036   2.09776
   A35        2.10919  -0.01047   0.00000  -0.02706  -0.02991   2.07928
   A36        2.05465  -0.00268   0.00000   0.00560   0.00393   2.05858
   A37        1.62007   0.01115   0.00000   0.07532   0.08177   1.70185
   A38        1.66224   0.01281   0.00000   0.06259   0.07220   1.73445
   A39        2.57666  -0.00592   0.00000  -0.00777  -0.00001   2.57664
   A40        2.59891   0.00783   0.00000   0.04350   0.04043   2.63934
   A41        3.06211   0.00995   0.00000   0.10766   0.11136   3.17348
   A42        3.08621   0.01219   0.00000   0.09309   0.09309   3.17929
   A43        3.05676  -0.00506   0.00000  -0.00710  -0.00063   3.05613
   A44        3.07290  -0.00767   0.00000  -0.05742  -0.06235   3.01055
   A45        3.24610  -0.01660   0.00000  -0.12682  -0.12682   3.11928
   A46        3.07929  -0.00636   0.00000   0.01202   0.01839   3.09768
    D1       -1.03966   0.00412   0.00000   0.03373   0.03219  -1.00747
    D2       -3.12334   0.00169   0.00000   0.02103   0.02108  -3.10226
    D3        1.04162   0.00340   0.00000   0.03638   0.03591   1.07753
    D4       -3.13466   0.00152   0.00000   0.01605   0.01450  -3.12017
    D5        1.06484  -0.00091   0.00000   0.00336   0.00339   1.06823
    D6       -1.05338   0.00080   0.00000   0.01870   0.01822  -1.03516
    D7        1.05554   0.00287   0.00000   0.03121   0.03033   1.08587
    D8       -1.02814   0.00044   0.00000   0.01851   0.01922  -1.00892
    D9        3.13682   0.00216   0.00000   0.03385   0.03405  -3.11231
   D10        1.26781   0.00016   0.00000   0.02118   0.01948   1.28730
   D11       -2.92291   0.00240   0.00000   0.03513   0.03452  -2.88840
   D12       -0.84051  -0.00099   0.00000   0.01126   0.00995  -0.83056
   D13        1.47021   0.00266   0.00000   0.04014   0.04077   1.51098
   D14       -1.55761   0.00419   0.00000   0.04937   0.05078  -1.50683
   D15       -2.69480   0.00321   0.00000   0.04257   0.04200  -2.65280
   D16        0.56056   0.00474   0.00000   0.05179   0.05201   0.61257
   D17       -0.64688  -0.00085   0.00000   0.01680   0.01710  -0.62978
   D18        2.60848   0.00068   0.00000   0.02603   0.02711   2.63559
   D19       -3.06524   0.00472   0.00000   0.03724   0.03832  -3.02692
   D20        0.03945   0.00173   0.00000   0.01446   0.01514   0.05459
   D21       -0.02196   0.00391   0.00000   0.03035   0.03059   0.00863
   D22        3.08273   0.00093   0.00000   0.00757   0.00740   3.09014
   D23        3.06909  -0.00752   0.00000  -0.06177  -0.06331   3.00578
   D24       -0.04321  -0.00073   0.00000  -0.00256  -0.00271  -0.04592
   D25        0.02592  -0.00630   0.00000  -0.05442  -0.05547  -0.02955
   D26       -3.08639   0.00049   0.00000   0.00479   0.00513  -3.08126
   D27        0.00942   0.00003   0.00000   0.00525   0.00541   0.01483
   D28        3.11596  -0.00346   0.00000  -0.02988  -0.03032   3.08564
   D29       -3.09069   0.00334   0.00000   0.03073   0.03126  -3.05943
   D30        0.01585  -0.00015   0.00000  -0.00441  -0.00447   0.01138
   D31        0.00628  -0.00393   0.00000  -0.03905  -0.03952  -0.03324
   D32        3.06939  -0.00488   0.00000  -0.04941  -0.05063   3.01876
   D33       -3.10429  -0.00082   0.00000  -0.00791  -0.00781  -3.11210
   D34       -0.04118  -0.00178   0.00000  -0.01827  -0.01892  -0.06010
   D35       -0.01990   0.00629   0.00000   0.05770   0.05885   0.03895
   D36        3.09239  -0.00051   0.00000  -0.00155  -0.00180   3.09059
   D37       -3.08222   0.00763   0.00000   0.06844   0.07032  -3.01190
   D38        0.03007   0.00084   0.00000   0.00920   0.00966   0.03973
   D39       -2.78819   0.00034   0.00000   0.00656   0.00763  -2.78056
   D40        1.39179  -0.00022   0.00000   0.00940   0.00943   1.40122
   D41       -0.70490  -0.00064   0.00000   0.01012   0.01009  -0.69481
   D42        0.26219  -0.00127   0.00000  -0.00636  -0.00622   0.25598
   D43       -1.84101  -0.00182   0.00000  -0.00352  -0.00442  -1.84543
   D44        2.34548  -0.00225   0.00000  -0.00280  -0.00375   2.34173
   D45       -0.64440  -0.00479   0.00000  -0.03052  -0.02890  -0.67330
   D46        1.42675  -0.00293   0.00000  -0.01964  -0.01968   1.40707
   D47       -2.73745  -0.00314   0.00000  -0.02740  -0.02602  -2.76347
   D48        1.92911  -0.01444   0.00000  -0.19086  -0.19420   1.73491
   D49       -0.75736  -0.02085   0.00000  -0.27803  -0.27770  -1.03506
   D50        0.10931   0.02837   0.00000   0.35922   0.35997   0.46928
   D51       -2.57920   0.02515   0.00000   0.28608   0.27518  -2.30401
   D52       -0.04279  -0.01688   0.00000  -0.16710  -0.16597  -0.20876
   D53        0.36265   0.00736   0.00000   0.11132   0.10557   0.46822
         Item               Value     Threshold  Converged?
 Maximum Force            0.028371     0.000450     NO 
 RMS     Force            0.007108     0.000300     NO 
 Maximum Displacement     1.918526     0.001800     NO 
 RMS     Displacement     0.322611     0.001200     NO 
 Predicted change in Energy=-4.237954D-02
 GradGradGradGradGradGradGradGradGradGradGradGradGradGradGradGradGradGrad

                          Input orientation:                          
 ---------------------------------------------------------------------
 Center     Atomic      Atomic             Coordinates (Angstroms)
 Number     Number       Type             X           Y           Z
 ---------------------------------------------------------------------
      1          6           0        2.948082   -0.528216   -0.501285
      2          6           0        2.798102    0.853847    0.163882
      3          7           0        1.402861    1.157767    0.527698
      4          6           0        0.786535    0.796691    1.706682
      5          6           0       -0.525661    1.132238    1.590833
      6          7           0       -0.695347    1.675404    0.336023
      7          6           0        0.489337    1.708838   -0.279103
      8          6           0       -1.984618    2.036475   -0.256608
      9          6           0       -0.076828   -2.237226    0.225843
     10          6           0       -1.112047   -1.840213   -0.645063
     11          6           0       -0.826657   -1.519462   -1.978827
     12          7           0       -0.622484   -1.288670   -3.102254
     13          6           0       -2.325422   -1.381557   -0.102018
     14          7           0       -3.282175   -0.900988    0.353995
     15          7           0        0.712808   -2.479271    1.045843
     16          1           0        2.580234   -1.342393    0.131147
     17          1           0        4.003744   -0.695858   -0.722960
     18          1           0        2.384946   -0.556066   -1.432306
     19          1           0        3.139761    1.636216   -0.516898
     20          1           0        3.376163    0.924209    1.087240
     21          1           0        1.315034    0.289781    2.493341
     22          1           0       -1.354860    0.982295    2.259070
     23          1           0        0.662708    2.039071   -1.285870
     24          1           0       -1.879217    2.087860   -1.338561
     25          1           0       -2.305885    3.004466    0.132302
     26          1           0       -2.720563    1.260282    0.008193
 ---------------------------------------------------------------------
                    Distance matrix (angstroms):
                    1          2          3          4          5
     1  C    0.000000
     2  C    1.541117   0.000000
     3  N    2.507799   1.473576   0.000000
     4  C    3.361962   2.535725   1.378491   0.000000
     5  C    4.381889   3.627821   2.202295   1.359364   0.000000
     6  N    4.339539   3.592878   2.169601   2.201549   1.377814
     7  C    3.331547   2.501528   1.337586   2.205376   2.204393
     8  C    5.564983   4.944677   3.586402   3.615365   2.521753
     9  C    3.549578   4.221823   3.715720   3.484671   3.663050
    10  C    4.269268   4.816806   4.085097   4.011057   3.765440
    11  C    4.173050   4.833495   4.291966   4.642190   4.456970
    12  N    4.482440   5.192152   4.823239   5.427701   5.281594
    13  C    5.357000   5.596270   4.554647   4.207189   3.524777
    14  N    6.299727   6.331300   5.120372   4.611537   3.641723
    15  N    3.346142   4.029390   3.738007   3.342764   3.856659
    16  H    1.094608   2.207263   2.791820   3.205518   4.230965
    17  H    1.091635   2.154449   3.429966   4.298988   5.404728
    18  H    1.088437   2.169417   2.782684   3.773343   4.523424
    19  H    2.172959   1.091922   2.082526   3.344665   4.258149
    20  H    2.194586   1.091648   2.064354   2.665735   3.939684
    21  H    3.507670   2.818517   2.150550   1.074756   2.216396
    22  H    5.330715   4.653322   3.260900   2.219269   1.075452
    23  H    3.525545   2.840148   2.147918   3.242562   3.241910
    24  H    5.554071   5.065317   3.888449   4.248160   3.365513
    25  H    6.362818   5.538668   4.161903   4.112907   2.966774
    26  H    5.965889   5.535801   4.157286   3.924222   2.709011
                    6          7          8          9         10
     6  N    0.000000
     7  C    1.335281   0.000000
     8  C    1.464173   2.495657   0.000000
     9  C    3.962748   4.018325   4.704991   0.000000
    10  C    3.673653   3.910769   3.992616   1.409885   0.000000
    11  C    3.947523   3.878507   4.117232   2.436801   1.401163
    12  N    4.540131   4.265136   4.583634   3.503388   2.565475
    13  C    3.491996   4.183870   3.438457   2.428135   1.406251
    14  N    3.650999   4.629936   3.268819   3.475083   2.567044
    15  N    4.443880   4.398372   5.418897   1.163834   2.568590
    16  H    4.458532   3.721582   5.692537   2.805293   3.805689
    17  H    5.368965   4.281429   6.598759   4.463979   5.242799
    18  H    4.194598   3.170647   5.215039   3.411171   3.807591
    19  H    3.929003   2.662061   5.146573   5.089367   5.493619
    20  H    4.207829   3.288815   5.637468   4.760233   5.548597
    21  H    3.258160   3.222103   4.636902   3.669412   4.503018
    22  H    2.147899   3.220443   2.799380   4.016553   4.057031
    23  H    2.146416   1.073634   2.840374   4.595531   4.313842
    24  H    2.091865   2.622242   1.088289   4.939872   4.061927
    25  H    2.098033   3.108242   1.091545   5.696734   5.049798
    26  H    2.093155   3.253798   1.101912   4.389678   3.553468
                   11         12         13         14         15
    11  C    0.000000
    12  N    1.164920   0.000000
    13  C    2.405770   3.451093   0.000000
    14  N    3.442984   4.378345   1.163731   0.000000
    15  N    3.527012   4.517438   3.428324   4.350807   0.000000
    16  H    4.011265   4.551393   4.911350   5.883225   2.369902
    17  H    5.058488   5.235882   6.396413   7.367939   4.139986
    18  H    3.397236   3.517112   4.963736   5.951983   3.554713
    19  H    5.275226   5.421579   6.256781   6.959678   5.026877
    20  H    5.747694   6.199829   6.264102   6.942799   4.321903
    21  H    5.278303   6.128308   4.773068   5.208556   3.182071
    22  H    4.949501   5.868343   3.479156   3.300092   4.210655
    23  H    3.919381   4.003103   4.693732   5.186059   5.084762
    24  H    3.811902   4.011352   3.710121   3.710290   5.767380
    25  H    5.206814   5.632691   4.392322   4.031732   6.326013
    26  H    3.906675   4.535854   2.673499   2.259663   5.181604
                   16         17         18         19         20
    16  H    0.000000
    17  H    1.781541   0.000000
    18  H    1.760918   1.772913   0.000000
    19  H    3.099217   2.495496   2.492753   0.000000
    20  H    2.585556   2.509043   3.085747   1.770903   0.000000
    21  H    3.137623   4.306418   4.155823   3.768826   2.574465
    22  H    5.041547   6.357936   5.475305   5.323085   4.874336
    23  H    4.137529   4.354220   3.118058   2.624767   3.773249
    24  H    5.814928   6.537376   5.018189   5.105806   5.904034
    25  H    6.539828   7.364462   6.093380   5.652312   6.125770
    26  H    5.906563   7.041121   5.607173   5.895799   6.200594
                   21         22         23         24         25
    21  H    0.000000
    22  H    2.768176   0.000000
    23  H    4.215208   4.213544   0.000000
    24  H    5.302811   3.800023   2.542939   0.000000
    25  H    5.104418   3.084926   3.428665   1.784839   0.000000
    26  H    4.837756   2.647427   3.705082   1.790669   1.797092
                   26
    26  H    0.000000
 Stoichiometry    C10H11N5
 Framework group  C1[X(C10H11N5)]
 Deg. of freedom    72
 Full point group                 C1      NOp   1
 Largest Abelian subgroup         C1      NOp   1
 Largest concise Abelian subgroup C1      NOp   1
                         Standard orientation:                         
 ---------------------------------------------------------------------
 Center     Atomic      Atomic             Coordinates (Angstroms)
 Number     Number       Type             X           Y           Z
 ---------------------------------------------------------------------
      1          6           0        2.502666    1.749965    0.407582
      2          6           0        2.989881    0.289260    0.344315
      3          7           0        1.899607   -0.658264    0.052889
      4          6           0        1.459381   -1.009124   -1.205418
      5          6           0        0.354799   -1.784145   -1.040758
      6          7           0        0.125400   -1.879297    0.314488
      7          6           0        1.088590   -1.215814    0.958717
      8          6           0       -1.049888   -2.501968    0.926683
      9          6           0       -0.702968    1.722040   -1.116438
     10          6           0       -1.692503    1.267845   -0.220725
     11          6           0       -1.601076    1.572418    1.143875
     12          7           0       -1.570900    1.847650    2.275412
     13          6           0       -2.524823    0.200973   -0.603568
     14          7           0       -3.133617   -0.750564   -0.883244
     15          7           0        0.105939    1.963238   -1.917689
     16          1           0        2.015329    2.072090   -0.518110
     17          1           0        3.360701    2.395604    0.604031
     18          1           0        1.782585    1.867291    1.215303
     19          1           0        3.431984    0.000173    1.299965
     20          1           0        3.736850    0.144622   -0.438509
     21          1           0        1.930206   -0.637790   -2.097346
     22          1           0       -0.313531   -2.223491   -1.759719
     23          1           0        1.150071   -1.077542    2.021633
     24          1           0       -1.163912   -2.129111    1.942729
     25          1           0       -0.922219   -3.585936    0.940283
     26          1           0       -1.937423   -2.233953    0.331151
 ---------------------------------------------------------------------
 Rotational constants (GHZ):           0.7034152           0.5535383           0.4447362
 Standard basis: 6-311G(2d,d,p) (5D, 7F)
 There are   351 symmetry adapted cartesian basis functions of A   symmetry.
 There are   336 symmetry adapted basis functions of A   symmetry.
   336 basis functions,   568 primitive gaussians,   351 cartesian basis functions
    53 alpha electrons       53 beta electrons
       nuclear repulsion energy       926.6031226831 Hartrees.
 NAtoms=   26 NActive=   26 NUniq=   26 SFac= 1.00D+00 NAtFMM=   60 NAOKFM=F Big=F
 Integral buffers will be    131072 words long.
 Raffenetti 2 integral format.
 Two-electron integral symmetry is turned on.
 One-electron integrals computed using PRISM.
 NBasis=   336 RedAO= T EigKep=  7.40D-04  NBF=   336
 NBsUse=   336 1.00D-06 EigRej= -1.00D+00 NBFU=   336
 Initial guess from the checkpoint file:  "c2c1im_c4n3.chk"
 B after Tr=    -0.000000   -0.000000    0.000000
         Rot=    0.959726    0.196509    0.081139   -0.183650 Ang=  32.63 deg.
 ExpMin= 1.03D-01 ExpMax= 6.29D+03 ExpMxC= 9.49D+02 IAcc=3 IRadAn=         5 AccDes= 0.00D+00
 Harris functional with IExCor=  402 and IRadAn=       5 diagonalized for initial guess.
 HarFok:  IExCor=  402 AccDes= 0.00D+00 IRadAn=         5 IDoV= 1 UseB2=F ITyADJ=14
 ICtDFT=  3500011 ScaDFX=  1.000000  1.000000  1.000000  1.000000
 FoFCou: FMM=F IPFlag=           0 FMFlag=      100000 FMFlg1=           0
         NFxFlg=           0 DoJE=T BraDBF=F KetDBF=T FulRan=T
         wScrn=  0.000000 ICntrl=       500 IOpCl=  0 I1Cent=   200000004 NGrid=           0
         NMat0=    1 NMatS0=      1 NMatT0=    0 NMatD0=    1 NMtDS0=    0 NMtDT0=    0
 Petite list used in FoFCou.
 Requested convergence on RMS density matrix=1.00D-08 within 128 cycles.
 Requested convergence on MAX density matrix=1.00D-06.
 Requested convergence on             energy=1.00D-06.
 No special actions if energy rises.
 Integral accuracy reduced to 1.0D-05 until final iterations.
 Initial convergence to 1.0D-05 achieved.  Increase integral accuracy.
 SCF Done:  E(RB3LYP) =  -661.530485895     A.U. after   16 cycles
            NFock= 16  Conv=0.57D-08     -V/T= 2.0039
 Calling FoFJK, ICntrl=      2127 FMM=F ISym2X=0 I1Cent= 0 IOpClX= 0 NMat=1 NMatS=1 NMatT=0.
 ***** Axes restored to original set *****
 -------------------------------------------------------------------
 Center     Atomic                   Forces (Hartrees/Bohr)
 Number     Number              X              Y              Z
 -------------------------------------------------------------------
      1        6          -0.000985197    0.003506764    0.004966870
      2        6           0.003750082   -0.007119157   -0.002919402
      3        7           0.000530041    0.002557271    0.000451213
      4        6          -0.000253521   -0.000055184    0.000055445
      5        6          -0.000509894   -0.002535947    0.000143647
      6        7           0.000671652    0.000975260   -0.000899591
      7        6          -0.002308915   -0.008275486    0.000963712
      8        6          -0.008096701    0.002497182    0.002583847
      9        6          -0.008942329    0.002208721    0.006277369
     10        6           0.003185278    0.003379705    0.004702836
     11        6          -0.000451521   -0.006561921   -0.013999320
     12        7           0.002081972    0.004069865    0.005062128
     13        6           0.004085413    0.001379346    0.002338290
     14        7          -0.003494589   -0.001463780    0.000866552
     15        7           0.003257545   -0.002761072   -0.002741504
     16        1           0.001574615    0.004075309    0.000184787
     17        1           0.000431395    0.000292470   -0.000595831
     18        1          -0.000274695   -0.000621991   -0.002935387
     19        1          -0.000390118    0.001296988    0.001981410
     20        1           0.000666241    0.000214449   -0.001404336
     21        1           0.000065975   -0.000255351    0.000227763
     22        1          -0.000254988   -0.000641814   -0.000230157
     23        1           0.000086111    0.000582805   -0.001972167
     24        1           0.000152890   -0.000762731    0.000240847
     25        1           0.000055795    0.000337152   -0.000692551
     26        1           0.005367461    0.003681145   -0.002656470
 -------------------------------------------------------------------
 Cartesian Forces:  Max     0.013999320 RMS     0.003381073

 GradGradGradGradGradGradGradGradGradGradGradGradGradGradGradGradGradGrad
 Berny optimization.
 Using GEDIIS/GDIIS optimizer.
 FormGI is forming the generalized inverse of G from B-inverse, IUseBI=4.
 Internal  Forces:  Max     0.009193484 RMS     0.002542143
 Search for a local minimum.
 Step number   2 out of a maximum of  136
 All quantities printed in internal units (Hartrees-Bohrs-Radians)
 Mixed Optimization -- RFO/linear search
 Update second derivatives using D2CorX and points    1    2
 DE= -4.32D-03 DEPred=-4.24D-02 R= 1.02D-01
 Trust test= 1.02D-01 RLast= 7.02D-01 DXMaxT set to 3.00D-01
 ITU=  0  0
 Use linear search instead of GDIIS.
     Eigenvalues ---    0.00235   0.00242   0.00650   0.00772   0.01060
     Eigenvalues ---    0.01260   0.01773   0.01824   0.02141   0.02304
     Eigenvalues ---    0.02372   0.02464   0.02562   0.02582   0.03077
     Eigenvalues ---    0.03294   0.03641   0.03945   0.04347   0.04457
     Eigenvalues ---    0.04812   0.05063   0.05436   0.06288   0.07022
     Eigenvalues ---    0.07512   0.08462   0.08842   0.09582   0.10940
     Eigenvalues ---    0.11334   0.12121   0.13128   0.13330   0.13934
     Eigenvalues ---    0.15900   0.15931   0.15961   0.17198   0.19001
     Eigenvalues ---    0.19352   0.22032   0.22754   0.23193   0.24246
     Eigenvalues ---    0.24464   0.24748   0.29944   0.34233   0.34396
     Eigenvalues ---    0.34417   0.34633   0.34734   0.34895   0.34942
     Eigenvalues ---    0.34969   0.35794   0.36510   0.36515   0.36528
     Eigenvalues ---    0.37430   0.43951   0.45169   0.45802   0.46639
     Eigenvalues ---    0.46820   0.50931   0.55784   0.57229   1.23952
     Eigenvalues ---    1.25374   1.27162
 RFO step:  Lambda=-4.72854978D-03 EMin= 2.35106178D-03
 Quartic linear search produced a step of -0.57260.
 Iteration  1 RMS(Cart)=  0.18172611 RMS(Int)=  0.01742924
 Iteration  2 RMS(Cart)=  0.06299692 RMS(Int)=  0.00210971
 Iteration  3 RMS(Cart)=  0.00267336 RMS(Int)=  0.00084200
 Iteration  4 RMS(Cart)=  0.00000259 RMS(Int)=  0.00084200
 Iteration  5 RMS(Cart)=  0.00000000 RMS(Int)=  0.00084200
 Variable       Old X    -DE/DX   Delta X   Delta X   Delta X     New X
                                 (Linear)    (Quad)   (Total)
    R1        2.91229  -0.00753  -0.01797   0.02849   0.01078   2.92307
    R2        2.06851  -0.00233  -0.00507   0.00811   0.00253   2.07104
    R3        2.06289   0.00049  -0.00290   0.00661   0.00370   2.06659
    R4        2.05685   0.00267   0.00116   0.00090   0.00205   2.05890
    R5        2.78465   0.00331  -0.01422   0.03598   0.02230   2.80695
    R6        2.06343  -0.00043   0.00181  -0.00427  -0.00246   2.06097
    R7        2.06292  -0.00082   0.00193  -0.00500  -0.00308   2.05984
    R8        2.60497   0.00107  -0.00863   0.01854   0.01025   2.61522
    R9        2.52767   0.00080  -0.00316   0.00976   0.00642   2.53409
   R10        2.56883   0.00181  -0.00175   0.00398   0.00253   2.57136
   R11        2.03099   0.00032   0.00097  -0.00164  -0.00067   2.03033
   R12        2.60369   0.00150  -0.00863   0.01882   0.01014   2.61383
   R13        2.03231   0.00014   0.00033  -0.00052  -0.00019   2.03212
   R14        2.52331   0.00004  -0.00302   0.00909   0.00632   2.52964
   R15        2.76689   0.00298  -0.01160   0.02979   0.01839   2.78528
   R16        2.02887   0.00204   0.00251  -0.00280  -0.00028   2.02859
[...]
 4123463,-0.02226669,-0.02054977,0.02931493,-0.00312284,-0.00026060,-0.
 00373039,-0.00152439,0.00048134,0.00087407,-0.00096598,-0.00027269,0.0
 0115007,0.00271150,-0.00069119,0.00166377,0.00022153,0.00018014,0.0001
 0771,-0.00014907,0.00019802,-0.00011724,0.00004721,-0.00009329,-0.0000
 4112,0.00001377,-0.00002086,0.00002410,0.00006525,-0.00003731,-0.00004
 280,-0.00012887,0.00007898,0.00012182,0.00007655,-0.00010926,-0.000092
 02,0.00021707,-0.00000874,0.00003421,0.00070499,0.00080394,0.00094328,
 0.00027641,-0.00015888,-0.00010404,-0.00007979,-0.00021583,0.00045699,
 0.08605303,-0.00824746,-0.02317826,0.01883654,-0.05910329,-0.18349804,
 0.12334092,0.00490639,0.00633742,-0.00740117,0.00162271,0.00024187,-0.
 00004909,0.00046799,0.00000691,-0.00064638,-0.00035808,0.00028465,-0.0
 0007747,0.00023887,0.00067386,-0.00003826,-0.00006736,-0.00004678,0.00
 000332,0.00037185,-0.00040393,0.00024158,-0.00008858,0.00019154,-0.000
 14705,-0.00008630,-0.00009847,0.00026718,0.00012043,0.00017588,-0.0001
 4346,0.00013055,-0.00003909,-0.00014309,-0.00008464,0.00007703,0.00007
 713,-0.00052316,-0.00001933,-0.00007348,0.00178887,-0.00378287,-0.0038
 6214,0.00049108,0.00085879,0.00010862,-0.00051226,0.00156808,-0.000177
 97,0.05744295,0.19845130,-0.00509937,-0.01133253,0.01072374,0.04981740
 ,0.11903097,-0.15627844,0.00384013,0.00292512,-0.00628401,0.00127338,0
 .00009443,0.00094841,0.00001772,-0.00009930,-0.00035892,0.00010304,-0.
 00050867,0.00001930,-0.00097141,-0.00012823,0.00070636,-0.00005083,0.0
 0007113,-0.00000152,0.00009428,-0.00012830,0.00005906,-0.00000871,0.00
 007758,-0.00004601,-0.00003877,-0.00005901,0.00010240,0.00006453,0.000
 08493,-0.00003023,0.00000208,-0.00001500,-0.00003346,0.00000644,0.0000
 2921,0.00002311,-0.00015213,0.00000645,0.00000109,0.00053249,-0.003027
 03,-0.00059015,-0.00001887,0.00097867,0.00043232,-0.00036037,0.0005433
 3,0.00088319,-0.05788997,-0.12796537,0.16553621,0.00388901,-0.00018371
 ,0.00420788,-0.11302028,-0.01460959,-0.10591905,-0.03011718,0.00257009
 ,-0.03112863,0.00203681,0.00048479,-0.00189564,-0.00050292,0.00030768,
 -0.00074909,-0.00218407,0.00089827,-0.00016246,-0.00222518,-0.00212820
 ,0.00424749,0.00006541,0.00018800,0.00052420,-0.00014789,0.00013737,-0
 .00008593,0.00001385,-0.00008403,0.00001068,0.00003487,0.00004727,-0.0
 0004554,0.00004136,-0.00013734,-0.00002188,-0.00005169,0.00004309,0.00
 006841,0.00003590,-0.00007681,-0.00002275,0.00012850,-0.00003564,0.000
 04654,-0.00014423,0.00000168,-0.00027208,0.00041390,-0.00023298,-0.000
 05864,0.00077947,0.00145722,0.00029937,0.00720790,0.00179579,0.0086704
 1,0.13416668,-0.01562974,-0.00322934,-0.02831923,-0.01458777,-0.050467
 84,-0.02198829,0.00561626,-0.00119499,0.00651052,-0.00029136,0.0005028
 4,-0.00015594,-0.00023843,-0.00011610,-0.00011065,0.00032969,-0.000098
 52,0.00065598,0.00136304,0.00050219,-0.00069392,-0.00000980,-0.0000052
 3,-0.00010105,0.00000570,0.00001037,0.00000311,0.00002644,-0.00002431,
 0.00005022,0.00005152,0.00011391,-0.00017316,-0.00015402,0.00001860,0.
 00010488,0.00007658,-0.00005197,-0.00005324,-0.00004473,0.00004857,0.0
 0004359,-0.00000303,0.00001961,0.00008831,-0.00057364,0.00118963,0.000
 77431,0.00033022,0.00132896,0.00060643,0.00151630,-0.00551938,-0.00185
 350,0.01252891,0.00252681,0.01907087,0.00990881,0.05431968,-0.00492746
 ,-0.00211441,-0.01009957,-0.11912966,-0.01877075,-0.24895400,0.0082021
 1,0.00056506,0.00828203,0.00092068,-0.00007927,0.00109225,-0.00018139,
 0.00023980,0.00048482,0.00100938,-0.00031721,0.00031906,0.00127594,0.0
 0004848,-0.00052081,-0.00002766,-0.00020827,-0.00014753,0.00005023,-0.
 00003279,0.00004339,-0.00002622,-0.00000776,0.00006026,0.00004431,0.00
 010787,-0.00015420,-0.00016159,-0.00003860,0.00007907,0.00012247,-0.00
 006419,-0.00008233,-0.00008453,0.00005759,0.00005699,-0.00007722,-0.00
 001576,0.00003141,0.00016086,-0.00004020,0.00095324,0.00032842,-0.0001
 1745,0.00011303,0.00099369,-0.00237725,0.00090104,-0.01015776,-0.00201
 375,-0.01645961,0.12164195,0.02556517,0.26368319,-0.00005674,0.0000451
 6,-0.00008873,0.00168634,-0.00039284,0.00017272,0.01131416,-0.00818940
 ,0.01666905,-0.13918204,0.06327045,-0.12682162,0.00037408,0.00617411,-
 0.02033105,-0.00509290,0.00253349,-0.00065532,-0.00313814,0.00027757,0
 .00404397,0.00084162,0.00018682,-0.00094009,-0.00006648,0.00000611,-0.
 00005731,0.00003899,0.00004579,-0.00002177,0.00001729,0.00003236,0.000
 00105,0.00001865,0.00005681,0.00006490,-0.00005884,0.00000897,0.000016
 20,0.00003672,-0.00007817,0.00005718,-0.00000110,-0.00000837,0.0001045
 9,0.00008423,0.00001622,0.00004450,-0.00003667,-0.00002472,0.00003872,
 0.00002150,-0.00003589,-0.00006198,-0.00004410,0.00000179,-0.00015572,
 -0.00020427,-0.00012943,-0.00023817,0.13280860,0.00002649,0.00024357,-
 0.00024032,0.00006155,-0.00124665,-0.00025216,0.00050040,-0.00297843,-
 0.00015478,0.06139821,-0.06685062,0.09431045,-0.00022233,-0.00011789,0
 .00279724,0.00149897,0.00467128,0.00082014,0.00020320,0.00254289,0.000
 79541,0.00006401,0.00117483,0.00059661,-0.00037101,0.00026371,-0.00025
 659,0.00020340,-0.00009640,0.00005060,0.00008029,0.00009843,-0.0001072
 1,-0.00003801,-0.00001369,0.00013473,-0.00026217,0.00004381,0.00013583
 ,0.00011046,-0.00016126,-0.00008291,0.00024985,-0.00001256,0.00035196,
 0.00008104,-0.00016579,-0.00011765,-0.00002234,-0.00008521,0.00003461,
 -0.00000851,-0.00010837,0.00003069,-0.00006823,-0.00002229,0.00005212,
 -0.00041009,0.00025769,-0.00020219,-0.06344071,0.06349056,0.00023345,-
 0.00001177,-0.00010034,-0.00171303,-0.00033124,0.00053744,-0.01503893,
 0.00772724,-0.01820633,-0.11876913,0.09110690,-0.24347752,0.00135714,-
 0.00186940,0.00542360,0.00170922,0.00070854,0.00225238,0.00470991,0.00
 025329,-0.00235575,-0.00014912,0.00029359,0.00055467,-0.00019201,0.000
 10295,-0.00012799,0.00007766,-0.00002436,0.00008220,0.00003666,0.00006
 905,-0.00013953,-0.00002335,-0.00007451,0.00009265,-0.00010802,0.00000
 011,0.00005354,0.00005873,-0.00000333,-0.00003158,0.00018382,0.0000325
 1,0.00013292,0.00005772,-0.00019109,-0.00009213,-0.00002267,-0.0000890
 9,0.00002773,-0.00003979,0.00003426,0.00007264,0.00010848,-0.00000998,
 0.00031515,0.00068525,0.00010176,0.00022212,0.12785521,-0.09801628,0.2
 5518522,-0.00016978,-0.00003627,0.00003039,0.00045730,-0.00026632,0.00
 074667,-0.00394190,0.00209998,-0.00066829,-0.00532217,-0.00382811,0.01
 625999,-0.24596311,-0.00702077,0.15789850,0.01025941,0.00016625,-0.008
 90498,-0.00040368,0.00126913,-0.00304655,0.00102952,-0.00021139,0.0003
 5650,0.00012286,-0.00016000,0.00014181,-0.00043246,0.00014960,0.000323
 97,0.00006315,0.00024571,-0.00028032,-0.00008437,-0.00022577,0.0000992
 9,0.00032410,-0.00022428,-0.00031118,-0.00031312,0.00007930,0.00022345
 ,-0.00011118,0.00006134,-0.00010157,0.00001686,0.00001714,-0.00000070,
 0.00001677,0.00004932,0.00000981,0.00000789,0.00001484,0.00000492,-0.0
 0022899,0.00006910,0.00007785,0.00005768,-0.00000791,-0.00002348,-0.00
 003006,-0.00025931,-0.00042970,0.24387709,-0.00032886,-0.00001077,0.00
 006656,0.00049630,0.00161350,-0.00010359,0.00306773,0.00379511,0.00159
 544,0.00353836,0.00221458,-0.00686161,-0.00705728,-0.03032867,0.019567
 08,-0.00832188,-0.00222688,0.00439802,0.00097425,0.00208440,0.00263783
 ,-0.00036464,-0.00101853,-0.00086741,0.00010865,-0.00031461,0.00013061
 ,-0.00047478,0.00020340,0.00033496,0.00014810,0.00045313,-0.00051506,-
 0.00005568,-0.00031731,0.00031796,0.00097655,-0.00055273,-0.00076530,-
 0.00023835,0.00027626,0.00099060,-0.00018478,0.00013403,-0.00004136,0.
 00001940,0.00001915,-0.00002284,-0.00002970,0.00007268,-0.00002054,0.0
 0002189,-0.00003537,-0.00004199,0.00045294,-0.00017656,-0.00001407,0.0
 0000518,-0.00004309,-0.00007344,-0.00070555,-0.00244958,-0.00058891,0.
 00805285,0.02500132,-0.00021199,-0.00002914,0.00000506,0.00044453,0.00
 020877,0.00073259,-0.00293292,0.00196969,0.00199001,-0.00463682,-0.001
 79118,0.00924034,0.14727808,0.01866083,-0.17572711,0.02392507,-0.00024
 037,-0.01682691,-0.00376644,0.00258346,-0.00405812,0.00127390,-0.00055
 207,0.00119018,0.00014940,-0.00022101,0.00014882,-0.00035617,0.0000805
 3,0.00026098,0.00002731,0.00021276,-0.00036019,-0.00007761,-0.00019093
 ,0.00019992,0.00088839,-0.00038349,-0.00054950,-0.00017387,0.00075288,
 0.00051259,-0.00011153,0.00012507,-0.00009573,0.00001767,0.00000301,0.
 00000179,-0.00002045,0.00007013,0.00001109,0.00001082,-0.00000011,-0.0
 0001088,-0.00010377,-0.00002708,0.00009024,0.00005836,-0.00003238,-0.0
 0004023,0.00021658,-0.00080163,-0.00041581,-0.16219737,-0.02056044,0.1
 8382542,-0.00020776,-0.00001992,-0.00001529,0.00192559,-0.00035699,-0.
 00060583,0.00873861,0.00312612,-0.02434317,-0.00389006,0.00218880,-0.0
 0181991,-0.00548158,0.00141247,0.00051028,0.00091777,-0.00577073,0.029
 20437,-0.06633383,0.00160683,0.04333251,0.00192601,-0.00086132,0.00121
 709,0.00036234,-0.00018090,0.00017637,0.00022127,0.00027498,-0.0005374
 6,-0.00027886,-0.00078455,0.00072606,-0.00048873,0.00076045,-0.0003035
 3,-0.00037525,0.00005738,0.00006069,0.00016481,-0.00009055,-0.00014426
 ,-0.00025012,0.00011569,-0.00009185,0.00009736,-0.00002160,0.00005223,
 -0.00001895,0.00002803,0.00001328,0.00002161,0.00025953,-0.00002689,-0
 .00031599,-0.00037957,0.00020934,-0.00007309,-0.00015108,0.00020618,0.
 00102223,0.00051541,-0.00068649,0.00070098,-0.00015885,0.00116171,0.06
 224930,0.00021854,-0.00005780,0.00029506,-0.00071823,-0.00125759,-0.00
 060614,-0.00358828,-0.00112359,0.01072259,0.00360488,0.00208578,0.0001
 7831,0.00034291,0.00312622,-0.00056359,-0.00082525,0.00117847,-0.00242
 832,0.00255865,-0.03448698,0.04830830,-0.00065583,-0.00235459,-0.00030
 461,0.00054059,-0.00053345,0.00014143,0.00041608,0.00076494,-0.0011958
 8,-0.00084330,-0.00179016,0.00158613,0.00069331,0.00064730,-0.00085430
 ,-0.00091401,0.00035687,0.00044993,0.00055834,-0.00037266,-0.00029510,
 -0.00037154,0.00028120,-0.00018248,0.00000781,0.00000365,-0.00005613,-
 0.00010134,-0.00006636,-0.00018013,0.00024771,-0.00032534,-0.00015157,
 -0.00017556,-0.00010404,0.00032521,-0.00004589,-0.00004666,-0.00006979
 ,0.00011738,0.00159162,0.00082996,0.00007896,0.00164608,0.00033171,-0.
 00158807,0.03032340,0.00004787,0.00018150,0.00014888,0.00013576,-0.000
 24161,0.00001931,0.00416916,0.00102602,-0.00917194,-0.00286038,0.00060
 299,0.00165028,0.00155449,-0.00061799,0.00229530,-0.00124863,0.0009873
 7,-0.00493783,0.04623205,0.05486279,-0.35118195,-0.00007830,-0.0003153
 3,0.00053005,0.00038592,-0.00028867,0.00012124,0.00041819,0.00070965,-
 0.00087584,-0.00030804,-0.00074895,0.00022439,-0.00019562,-0.00038414,
 -0.00117535,-0.00061370,0.00030302,0.00031989,0.00030140,-0.00033623,-
 0.00023794,-0.00027966,0.00011879,-0.00014296,0.00002039,-0.00001219,-
 0.00004538,0.00003548,-0.00006293,-0.00000827,0.00003090,-0.00003526,0
 .00010612,-0.00041274,-0.00008016,0.00022891,-0.00000283,-0.00011587,0
 .00009608,0.00023718,0.00016475,-0.00005523,-0.00004438,0.00016744,0.0
 0007469,-0.04755783,-0.05604028,0.36167024,-0.00006940,-0.00002096,0.0
 0000229,0.00019737,0.00011539,0.00004918,-0.00021139,-0.00001961,-0.00
 087272,-0.00068404,0.00087790,-0.00127382,-0.00445479,-0.00052071,0.00
 114226,-0.00344543,-0.00101301,-0.03912390,0.00206625,-0.00054596,-0.0
 0127877,-0.05256648,0.00432220,0.03409717,-0.00021407,0.00005248,-0.00
 011215,0.00005308,-0.00012048,0.00025336,0.00017106,0.00041702,-0.0005
 2202,0.00003571,-0.00064119,0.00010703,0.00011671,0.00003814,0.0000358
 3,-0.00015843,-0.00030449,-0.00006390,0.00012977,-0.00005955,0.0000739
 6,-0.00000639,-0.00002464,-0.00000486,-0.00000179,0.00002551,0.0000196
 1,-0.00001584,0.00001200,0.00000950,-0.00003661,-0.00000687,0.00000902
 ,0.00003214,0.00000093,0.00000319,-0.00035854,0.00023784,0.00015664,-0
 .00006864,-0.00000577,-0.00017249,-0.00051107,0.00010241,0.00003603,0.
 05957436,0.00002974,0.00000686,0.00004086,-0.00011139,0.00003204,-0.00
 000862,-0.00024539,-0.00018301,-0.00017861,0.00020086,-0.00006587,0.00
 096730,0.00222496,0.00019377,0.00013459,0.00016820,-0.00091765,0.01389
 720,-0.00018101,0.00081134,0.00016123,0.00372608,-0.05421199,-0.043791
 84,0.00032603,-0.00016404,0.00009915,0.00026486,0.00001415,-0.00033570
 ,-0.00020785,-0.00107742,0.00119214,-0.00045121,0.00073109,-0.00063778
 ,-0.00033724,0.00005750,0.00007372,0.00009378,-0.00031075,-0.00025726,
 -0.00022016,0.00011955,-0.00012065,0.00002628,0.00001735,0.00001102,-0
 .00001264,-0.00002431,-0.00001948,0.00004082,0.00001489,-0.00002185,0.
 00000492,-0.00001628,0.00000094,-0.00000649,-0.00001576,-0.00000764,0.
 00017266,-0.00007755,-0.00005490,-0.00003769,-0.00000770,-0.00012825,0
 .00003817,0.00045684,0.00004419,-0.00772704,0.05251086,-0.00002010,-0.
 00000762,-0.00000400,0.00004664,0.00000801,0.00001619,-0.00010573,0.00
 031387,-0.00005163,-0.00006607,0.00022839,-0.00037497,-0.00156338,-0.0
 0089875,0.00144209,-0.00166091,0.00082370,-0.01500710,0.00151354,-0.00
 029147,0.00055062,0.02000196,-0.03755128,-0.31683156,-0.00001495,0.000
 04815,-0.00001729,-0.00002487,0.00011089,-0.00012124,0.00024538,-0.000
 06803,-0.00008962,-0.00005571,-0.00022831,-0.00006951,-0.00008804,0.00
 014158,0.00001696,0.00011655,0.00003517,0.00006761,0.00002663,-0.00001
 920,0.00001809,-0.00000184,-0.00000841,-0.00000373,-0.00000014,0.00000
 738,0.00000744,-0.00000751,-0.00000007,0.00000544,-0.00001503,-0.00000
 228,0.00001242,0.00001669,0.00000062,0.00000053,-0.00013004,0.00003160
 ,0.00010375,0.00002413,-0.00008719,0.00011268,-0.00043305,-0.00015819,
 0.00037006,-0.02000323,0.04026326,0.34115387,0.00003289,-0.00005744,0.
 00001390,0.00014904,-0.00043179,-0.00040634,-0.00183762,-0.00016959,-0
 .00185718,-0.00170505,-0.00006951,0.00043797,0.00085985,-0.00015891,0.
 00245450,-0.01819712,0.03265658,0.00293429,0.00235075,0.00200846,-0.00
 195516,-0.05339690,0.03561307,0.00911822,-0.00013105,0.00007719,-0.000
 15081,0.00016216,0.00015035,-0.00016398,-0.00002348,-0.00015648,0.0002
 1872,0.00020956,0.00017606,-0.00004160,-0.00076131,-0.00001076,0.00059
 158,0.00044404,-0.00080854,0.00009748,0.00013781,-0.00004917,0.0000838
 2,-0.00000504,-0.00002684,-0.00000317,-0.00001589,0.00002030,0.0000072
 6,-0.00000339,0.00001207,0.00000439,-0.00009203,0.00001767,0.00002322,
 -0.00016062,0.00004189,0.00007083,-0.00008502,-0.00021100,-0.00005242,
 0.00010352,0.00015781,-0.00007907,-0.00001457,0.00047032,0.00005122,-0
 .00027851,0.00214604,0.00137232,0.06450387,0.00003155,0.00003561,-0.00
 000474,-0.00009401,-0.00003548,0.00006290,0.00027780,-0.00034917,0.000
 73764,0.00077674,0.00005499,-0.00011229,0.00004715,0.00030453,-0.00100
 275,0.00671214,-0.00332050,0.00198051,-0.00168328,0.00011332,0.0008151
 3,0.04197607,-0.29661705,-0.05623131,-0.00010407,0.00010440,-0.0000870
 8,0.00003815,0.00002021,-0.00008998,0.00002332,0.00002884,0.00005424,0
 .00003592,-0.00001179,-0.00004435,-0.00041075,0.00002572,0.00038730,0.
 00023304,-0.00052488,0.00004872,0.00008029,-0.00007732,0.00005252,-0.0
 0001327,0.00000313,-0.00000277,0.00001546,-0.00001270,-0.00000982,-0.0
 0001165,-0.00000640,0.00000613,0.00001830,0.00000484,-0.00000160,0.000
 03318,-0.00000032,-0.00001853,0.00003929,0.00003529,-0.00000169,0.0000
 1072,-0.00036690,0.00003353,-0.00002746,-0.00017121,-0.00001230,-0.000
 87927,-0.00188298,-0.00046417,-0.05100098,0.31763233,-0.00001338,-0.00
 004716,-0.00001418,0.00014040,-0.00019175,-0.00013519,-0.00118918,0.00
 065111,-0.00096534,-0.00052333,-0.00042479,0.00027904,-0.00042012,0.00
 052758,0.00082364,-0.00780383,0.01748010,0.00209903,0.00221986,0.00010
 328,-0.00061402,0.01148433,-0.05893762,-0.06343696,-0.00011872,0.00006
 141,-0.00004270,-0.00006424,-0.00001640,0.00012553,0.00020661,0.000240
 86,-0.00041801,0.00027336,-0.00036681,0.00019119,0.00014574,0.00007571
 ,-0.00014538,-0.00005198,0.00022147,0.00002323,0.00009236,-0.00003837,
 0.00003979,-0.00000817,-0.00000809,-0.00000233,-0.00000537,0.00002237,
 0.00001727,-0.00001525,0.00000354,0.00000813,-0.00005541,0.00000021,-0
 .00000126,-0.00007444,0.00001075,0.00003667,-0.00007433,-0.00017684,-0
 .00007492,0.00002219,0.00026638,-0.00008828,-0.00006813,-0.00019576,-0
 .00002558,0.00493753,-0.03046687,-0.00270483,-0.00579991,0.05961607,0.
 06162536,-0.00014732,-0.00003571,-0.00000853,0.00027591,0.00031987,-0.
 00023610,-0.00155386,0.00085867,-0.00018517,-0.00058140,0.00014300,0.0
 0069393,0.00146206,-0.00078275,0.00158879,-0.03285211,-0.01315695,0.01
 023126,-0.00024382,-0.00105309,-0.00422637,-0.18422098,-0.11089167,0.0
 6846658,-0.00010774,0.00008999,-0.00007877,-0.00007479,0.00014718,0.00
 001680,-0.00003007,0.00009337,0.00011790,0.00011233,-0.00003411,0.0000
 0734,-0.00062200,-0.00011724,0.00075109,-0.00009909,-0.00089675,-0.000
 51641,0.00008936,-0.00005013,0.00004923,-0.00000743,-0.00001530,-0.000
 00226,-0.00000051,0.00004832,0.00003277,-0.00000450,-0.00000174,0.0000
 0580,0.00001564,-0.00000850,0.00000484,-0.00007203,0.00002467,0.000004
 91,0.00009050,0.00008261,-0.00000525,0.00003237,-0.00009388,-0.0006113
 3,-0.00010800,-0.00013059,-0.00005394,0.00070498,0.00007470,0.00082675
 ,0.00775411,0.00387561,-0.00323660,0.21018838,0.00013758,0.00005660,0.
 00001443,-0.00033259,-0.00012957,0.00020078,0.00150455,-0.00072347,-0.
 00013367,0.00013781,0.00001022,-0.00017980,-0.00011399,0.00072024,-0.0
 0027795,0.01293510,0.00764412,-0.00576218,0.00122137,0.00012214,0.0017
 3373,-0.12248895,-0.14782089,0.06214142,0.00050286,-0.00032405,0.00064
 466,-0.00104469,0.00002123,0.00075671,-0.00010750,0.00050828,-0.001129
 44,-0.00020454,-0.00069637,0.00062648,0.00298083,-0.00242463,-0.001357
 99,-0.00157205,0.00059742,0.00010417,-0.00046037,0.00024416,-0.0002919
 1,0.00004790,0.00004137,0.00001732,-0.00000618,-0.00007161,-0.00003717
 ,0.00002713,0.00001499,-0.00002029,0.00002052,-0.00001304,-0.00001181,
 0.00007237,-0.00002535,-0.00001470,0.00002013,-0.00002741,0.00000638,-
 0.00008643,0.00033507,-0.00007430,0.00000773,0.00022804,0.00012342,0.0
 0568773,0.00398908,-0.00222764,-0.02039680,-0.01498652,0.01158960,0.12
 151044,0.15270996,-0.00014496,-0.00003686,0.00001856,0.00031048,0.0003
 4672,-0.00012609,-0.00162753,0.00083927,-0.00089999,-0.00068546,-0.000
 26822,0.00057878,-0.00050221,-0.00064883,0.00124763,-0.01702301,-0.008
 82431,0.00590459,0.00022800,-0.00054570,-0.00173920,0.07790530,0.06221
 227,-0.09051761,-0.00018489,0.00005846,-0.00020392,0.00077794,-0.00019
 148,-0.00027354,0.00010582,-0.00021761,0.00042237,-0.00000676,0.000027
 18,-0.00031907,-0.00080286,0.00048875,0.00025382,0.00007732,-0.0005150
 0,-0.00061471,0.00012179,-0.00005267,0.00007323,-0.00000936,-0.0000156
 5,-0.00000345,-0.00000572,0.00004814,0.00003145,-0.00000032,0.00000349
 ,0.00000352,0.00000990,-0.00001732,0.00000169,-0.00003827,0.00001073,0
 .00000307,0.00005428,0.00010181,0.00002110,-0.00021097,0.00009088,-0.0
 0022365,-0.00023640,0.00011366,0.00000285,0.02249525,0.01914384,-0.008
 60226,-0.00697011,-0.00571132,0.00340009,-0.07363727,-0.06644021,0.091
 56072\\0.00003119,-0.00001387,0.00000599,0.00000300,0.00001791,0.00001
 378,0.00000789,0.00000441,-0.00000676,0.00000169,-0.00000741,-0.000000
 02,0.00000938,0.00001523,0.00000609,-0.00001538,0.00000252,0.00000260,
 -0.00000782,-0.00001244,-0.00001161,0.00002129,-0.00000910,-0.00001179
 ,-0.00000456,-0.00000147,0.00000578,-0.00000512,-0.00000350,0.00001147
 ,-0.00000304,0.00000752,-0.00001081,0.00000371,0.00000308,0.00000112,0
 .00000027,-0.00000825,-0.00001048,0.00000151,0.00001054,0.00000052,0.0
 0000593,-0.00000824,0.00000712,-0.00001934,-0.00000253,-0.00002274,-0.
 00000431,0.00000044,0.00000061,-0.00000598,-0.00000036,0.00000322,0.00
 000016,-0.00000573,0.00000147,-0.00000294,-0.00000415,0.00000027,-0.00
 000189,-0.00000219,0.00000096,-0.00000138,-0.00000330,-0.00000235,0.00
 000405,0.00000728,0.00000628,0.,0.00000203,0.00000300,-0.00000486,0.00
 000344,0.00000426,-0.00001348,0.00000813,0.00000202\\\@
 Job cpu time:       0 days  8 hours  9 minutes 31.8 seconds.
 Elapsed time:       0 days  0 hours 41 minutes 42.0 seconds.
 File lengths (MBytes):  RWF= 115477 Int=      0 D2E=      0 Chk=     30 Scr=      1
 Normal termination of Gaussian 16 at Sat Feb 29 09:36:01 2020.
