 Entering Gaussian System, Link 0=g16
 Input=c1c2im_ncn2.gjf
 Output=c1c2im_ncn2.log
 Initial command:
 /opt/g16/l1.exe "/scratch/mtmjea001/heat_capicities/c1c2im_ncn2/Gau-30499.inp" -scrdir="/scratch/mtmjea001/heat_capicities/c1c2im_ncn2/"
 Entering Link 1 = /opt/g16/l1.exe PID=     30500.
  
 Copyright (c) 1988-2019, Gaussian, Inc.  All Rights Reserved.
  
 This is part of the Gaussian(R) 16 program.  It is based on
 the Gaussian(R) 09 system (copyright 2009, Gaussian, Inc.),
 the Gaussian(R) 03 system (copyright 2003, Gaussian, Inc.),
 the Gaussian(R) 98 system (copyright 1998, Gaussian, Inc.),
 the Gaussian(R) 94 system (copyright 1995, Gaussian, Inc.),
 the Gaussian 92(TM) system (copyright 1992, Gaussian, Inc.),
 the Gaussian 90(TM) system (copyright 1990, Gaussian, Inc.),
 the Gaussian 88(TM) system (copyright 1988, Gaussian, Inc.),
 the Gaussian 86(TM) system (copyright 1986, Carnegie Mellon
 University), and the Gaussian 82(TM) system (copyright 1983,
 Carnegie Mellon University). Gaussian is a federally registered
 trademark of Gaussian, Inc.
  
 This software contains proprietary and confidential information,
 including trade secrets, belonging to Gaussian, Inc.
  
 This software is provided under written license and may be
 used, copied, transmitted, or stored only in accord with that
 written license.
  
 The following legend is applicable only to US Government
 contracts under FAR:
  
                    RESTRICTED RIGHTS LEGEND
  
 Use, reproduction and disclosure by the US Government is
 subject to restrictions as set forth in subparagraphs (a)
 and (c) of the Commercial Computer Software - Restricted
 Rights clause in FAR 52.227-19.
  
 Gaussian, Inc.
 340 Quinnipiac St., Bldg. 40, Wallingford CT 06492
  
  
 ---------------------------------------------------------------
 Warning -- This program may not be used in any manner that
 competes with the business of Gaussian, Inc. or will provide
 assistance to any competitor of Gaussian, Inc.  The licensee
 of this program is prohibited from giving any competitor of
 Gaussian, Inc. access to this program.  By using this program,
 the user acknowledges that Gaussian, Inc. is engaged in the
 business of creating and licensing software in the field of
 computational chemistry and represents and warrants to the
 licensee that it is not a competitor of Gaussian, Inc. and that
 it will not use this program in any manner prohibited above.
 ---------------------------------------------------------------
  

 Cite this work as:
 Gaussian 16, Revision C.01,
 M. J. Frisch, G. W. Trucks, H. B. Schlegel, G. E. Scuseria, 
 M. A. Robb, J. R. Cheeseman, G. Scalmani, V. Barone, 
 G. A. Petersson, H. Nakatsuji, X. Li, M. Caricato, A. V. Marenich, 
 J. Bloino, B. G. Janesko, R. Gomperts, B. Mennucci, H. P. Hratchian, 
 J. V. Ortiz, A. F. Izmaylov, J. L. Sonnenberg, D. Williams-Young, 
 F. Ding, F. Lipparini, F. Egidi, J. Goings, B. Peng, A. Petrone, 
 T. Henderson, D. Ranasinghe, V. G. Zakrzewski, J. Gao, N. Rega, 
 G. Zheng, W. Liang, M. Hada, M. Ehara, K. Toyota, R. Fukuda, 
 J. Hasegawa, M. Ishida, T. Nakajima, Y. Honda, O. Kitao, H. Nakai, 
 T. Vreven, K. Throssell, J. A. Montgomery, Jr., J. E. Peralta, 
 F. Ogliaro, M. J. Bearpark, J. J. Heyd, E. N. Brothers, K. N. Kudin, 
 V. N. Staroverov, T. A. Keith, R. Kobayashi, J. Normand, 
 K. Raghavachari, A. P. Rendell, J. C. Burant, S. S. Iyengar, 
 J. Tomasi, M. Cossi, J. M. Millam, M. Klene, C. Adamo, R. Cammi, 
 J. W. Ochterski, R. L. Martin, K. Morokuma, O. Farkas, 
 J. B. Foresman, and D. J. Fox, Gaussian, Inc., Wallingford CT, 2019.
 
 ******************************************
 Gaussian 16:  ES64L-G16RevC.01  3-Jul-2019
                 6-Mar-2020 
 ******************************************
 %chk=c1c2im_ncn2.chk
 %mem=56Gb
 %nprocs=12
 Will use up to   12 processors via shared memory.
 Default route: test
 ------------------------------------------------------------------
 #wb97xd/def2svp/w06 opt(tight) freq temperature=298.2 scale=0.9788
 ------------------------------------------------------------------
 1/7=10,18=20,19=15,26=3,38=1,112=298200,114=978800/1,3;
 2/9=110,12=2,17=6,18=5,40=1/2;
 3/5=43,7=101,11=2,25=1,30=1,71=1,74=-58,82=40/1,2,3;
 4//1;
 5/5=2,38=5/2;
 6/7=2,8=2,9=2,10=2,28=1/1;
 7//1,2,3,16;
 1/7=10,18=20,19=15,26=3/3(2);
 2/9=110/2;
 99//99;
 2/9=110/2;
 3/5=43,7=101,11=2,25=1,30=1,71=1,74=-58,82=40/1,2,3;
 4/5=5,16=3,69=1/1;
 5/5=2,38=5/2;
 7//1,2,3,16;
 1/7=10,18=20,19=15,26=3/3(-5);
 2/9=110/2;
 6/7=2,8=2,9=2,10=2,19=2,28=1/1;
 99/9=1/99;
 -------------
 c1c2c2im_ncn2
 -------------
 Symbolic Z-matrix:
 Charge =  0 Multiplicity = 1
 C                     2.85003   1.15347   0.35006 
 C                     2.81124  -0.35176   0.10786 
 N                     1.43153  -0.82289   0.12979 
 C                     0.71623  -1.13443   1.2613 
 C                    -0.55608  -1.38909   0.86787 
 N                    -0.59375  -1.21953  -0.49236 
 C                     0.60693  -0.81954  -0.92208 
 C                    -1.79604  -1.28078  -1.30562 
 C                    -0.57642   1.73768  -0.56686 
 N                     0.27457   1.52453  -1.34508 
 N                    -1.46904   1.96602   0.31732 
 C                    -2.28495   1.06898   0.7675 
 N                    -2.98307   0.23926   1.19173 
 H                     2.44408   1.3891    1.33285 
 H                     2.24974   1.66112  -0.40707 
 H                     3.87985   1.50268   0.29301 
 H                     3.36442  -0.89385   0.88018 
 H                     3.23424  -0.59828  -0.87 
 H                     1.17349  -1.15644   2.23458 
 H                    -1.44081  -1.63381   1.42992 
 H                     0.88934  -0.65352  -1.94503 
 H                    -1.88827  -2.26867  -1.75962 
 H                    -1.72959  -0.5174   -2.08036 
 H                    -2.65294  -1.08034  -0.66034 
 
 Add virtual bond connecting atoms H15        and N10        Dist= 4.14D+00.
 Add virtual bond connecting atoms H21        and N10        Dist= 4.42D+00.
 Add virtual bond connecting atoms H24        and N13        Dist= 4.34D+00.

 GradGradGradGradGradGradGradGradGradGradGradGradGradGradGradGradGradGrad
 Berny optimization.
 Initialization pass.
                           ----------------------------
                           !    Initial Parameters    !
                           ! (Angstroms and Degrees)  !
 --------------------------                            --------------------------
 ! Name  Definition              Value          Derivative Info.                !
 --------------------------------------------------------------------------------
 ! R1    R(1,2)                  1.5251         estimate D2E/DX2                !
 ! R2    R(1,14)                 1.0891         estimate D2E/DX2                !
 ! R3    R(1,15)                 1.0915         estimate D2E/DX2                !
 ! R4    R(1,16)                 1.0889         estimate D2E/DX2                !
 ! R5    R(2,3)                  1.4581         estimate D2E/DX2                !
 ! R6    R(2,17)                 1.0938         estimate D2E/DX2                !
 ! R7    R(2,18)                 1.0936         estimate D2E/DX2                !
 ! R8    R(3,4)                  1.3744         estimate D2E/DX2                !
 ! R9    R(3,7)                  1.3366         estimate D2E/DX2                !
 ! R10   R(4,5)                  1.3559         estimate D2E/DX2                !
 ! R11   R(4,19)                 1.0756         estimate D2E/DX2                !
 ! R12   R(5,6)                  1.3713         estimate D2E/DX2                !
 ! R13   R(5,20)                 1.0764         estimate D2E/DX2                !
 ! R14   R(6,7)                  1.3365         estimate D2E/DX2                !
 ! R15   R(6,8)                  1.4528         estimate D2E/DX2                !
 ! R16   R(7,21)                 1.0741         estimate D2E/DX2                !
 ! R17   R(8,22)                 1.0911         estimate D2E/DX2                !
 ! R18   R(8,23)                 1.0897         estimate D2E/DX2                !
 ! R19   R(8,24)                 1.0913         estimate D2E/DX2                !
 ! R20   R(9,10)                 1.1727         estimate D2E/DX2                !
 ! R21   R(9,11)                 1.277          estimate D2E/DX2                !
 ! R22   R(10,15)                2.1908         estimate D2E/DX2                !
 ! R23   R(10,21)                2.3413         estimate D2E/DX2                !
 ! R24   R(11,12)                1.2935         estimate D2E/DX2                !
 ! R25   R(12,13)                1.1644         estimate D2E/DX2                !
 ! R26   R(13,24)                2.2979         estimate D2E/DX2                !
 ! A1    A(2,1,14)             110.3257         estimate D2E/DX2                !
 ! A2    A(2,1,15)             109.5664         estimate D2E/DX2                !
 ! A3    A(2,1,16)             109.4057         estimate D2E/DX2                !
 ! A4    A(14,1,15)            108.6831         estimate D2E/DX2                !
 ! A5    A(14,1,16)            109.2929         estimate D2E/DX2                !
 ! A6    A(15,1,16)            109.5504         estimate D2E/DX2                !
 ! A7    A(1,2,3)              109.9125         estimate D2E/DX2                !
 ! A8    A(1,2,17)             111.3559         estimate D2E/DX2                !
 ! A9    A(1,2,18)             110.7725         estimate D2E/DX2                !
 ! A10   A(3,2,17)             107.927          estimate D2E/DX2                !
 ! A11   A(3,2,18)             107.8557         estimate D2E/DX2                !
 ! A12   A(17,2,18)            108.9072         estimate D2E/DX2                !
 ! A13   A(2,3,4)              125.3158         estimate D2E/DX2                !
 ! A14   A(2,3,7)              124.8298         estimate D2E/DX2                !
 ! A15   A(4,3,7)              109.1102         estimate D2E/DX2                !
 ! A16   A(3,4,5)              106.9808         estimate D2E/DX2                !
 ! A17   A(3,4,19)             121.8943         estimate D2E/DX2                !
 ! A18   A(5,4,19)             131.1215         estimate D2E/DX2                !
 ! A19   A(4,5,6)              106.8808         estimate D2E/DX2                !
 ! A20   A(4,5,20)             131.4902         estimate D2E/DX2                !
 ! A21   A(6,5,20)             121.5678         estimate D2E/DX2                !
 ! A22   A(5,6,7)              109.3452         estimate D2E/DX2                !
 ! A23   A(5,6,8)              124.9455         estimate D2E/DX2                !
 ! A24   A(7,6,8)              125.1758         estimate D2E/DX2                !
 ! A25   A(3,7,6)              107.4854         estimate D2E/DX2                !
 ! A26   A(3,7,21)             125.9923         estimate D2E/DX2                !
 ! A27   A(6,7,21)             126.0619         estimate D2E/DX2                !
 ! A28   A(6,8,22)             109.9403         estimate D2E/DX2                !
 ! A29   A(6,8,23)             108.5418         estimate D2E/DX2                !
 ! A30   A(6,8,24)             108.1245         estimate D2E/DX2                !
 ! A31   A(22,8,23)            110.0965         estimate D2E/DX2                !
 ! A32   A(22,8,24)            110.2407         estimate D2E/DX2                !
 ! A33   A(23,8,24)            109.8541         estimate D2E/DX2                !
 ! A34   A(9,10,15)            111.0246         estimate D2E/DX2                !
 ! A35   A(9,10,21)            121.9832         estimate D2E/DX2                !
 ! A36   A(15,10,21)            86.0425         estimate D2E/DX2                !
 ! A37   A(9,11,12)            123.911          estimate D2E/DX2                !
 ! A38   A(12,13,24)            91.686          estimate D2E/DX2                !
 ! A39   A(1,15,10)            139.8041         estimate D2E/DX2                !
 ! A40   A(7,21,10)             80.2536         estimate D2E/DX2                !
 ! A41   A(8,24,13)            134.0173         estimate D2E/DX2                !
 ! A42   L(10,9,11,4,-1)       178.4944         estimate D2E/DX2                !
 ! A43   L(11,12,13,3,-1)      177.9943         estimate D2E/DX2                !
 ! A44   L(10,9,11,4,-2)       178.3195         estimate D2E/DX2                !
 ! A45   L(11,12,13,3,-2)      178.8374         estimate D2E/DX2                !
 ! D1    D(14,1,2,3)            61.9451         estimate D2E/DX2                !
 ! D2    D(14,1,2,17)          -57.6029         estimate D2E/DX2                !
 ! D3    D(14,1,2,18)         -178.9641         estimate D2E/DX2                !
 ! D4    D(15,1,2,3)           -57.6716         estimate D2E/DX2                !
 ! D5    D(15,1,2,17)         -177.2197         estimate D2E/DX2                !
 ! D6    D(15,1,2,18)           61.4192         estimate D2E/DX2                !
 ! D7    D(16,1,2,3)          -177.7868         estimate D2E/DX2                !
 ! D8    D(16,1,2,17)           62.6651         estimate D2E/DX2                !
 ! D9    D(16,1,2,18)          -58.696          estimate D2E/DX2                !
 ! D10   D(2,1,15,10)           47.8287         estimate D2E/DX2                !
 ! D11   D(14,1,15,10)         -72.7911         estimate D2E/DX2                !
 ! D12   D(16,1,15,10)         167.8555         estimate D2E/DX2                !
 ! D13   D(1,2,3,4)            -83.2125         estimate D2E/DX2                !
 ! D14   D(1,2,3,7)             85.8151         estimate D2E/DX2                !
 ! D15   D(17,2,3,4)            38.4066         estimate D2E/DX2                !
 ! D16   D(17,2,3,7)          -152.5658         estimate D2E/DX2                !
 ! D17   D(18,2,3,4)           155.9242         estimate D2E/DX2                !
 ! D18   D(18,2,3,7)           -35.0482         estimate D2E/DX2                !
 ! D19   D(2,3,4,5)            173.5159         estimate D2E/DX2                !
 ! D20   D(2,3,4,19)            -7.0894         estimate D2E/DX2                !
 ! D21   D(7,3,4,5)              3.0335         estimate D2E/DX2                !
 ! D22   D(7,3,4,19)          -177.5718         estimate D2E/DX2                !
 ! D23   D(2,3,7,6)           -175.0452         estimate D2E/DX2                !
 ! D24   D(2,3,7,21)            12.3827         estimate D2E/DX2                !
 ! D25   D(4,3,7,6)             -4.5058         estimate D2E/DX2                !
 ! D26   D(4,3,7,21)          -177.0779         estimate D2E/DX2                !
 ! D27   D(3,4,5,6)             -0.3897         estimate D2E/DX2                !
 ! D28   D(3,4,5,20)          -177.5032         estimate D2E/DX2                !
 ! D29   D(19,4,5,6)          -179.7076         estimate D2E/DX2                !
 ! D30   D(19,4,5,20)            3.1789         estimate D2E/DX2                !
 ! D31   D(4,5,6,7)             -2.3877         estimate D2E/DX2                !
 ! D32   D(4,5,6,8)           -174.3571         estimate D2E/DX2                !
 ! D33   D(20,5,6,7)           175.0748         estimate D2E/DX2                !
 ! D34   D(20,5,6,8)             3.1054         estimate D2E/DX2                !
 ! D35   D(5,6,7,3)              4.2688         estimate D2E/DX2                !
 ! D36   D(5,6,7,21)           176.8344         estimate D2E/DX2                !
 ! D37   D(8,6,7,3)            176.2154         estimate D2E/DX2                !
 ! D38   D(8,6,7,21)           -11.219          estimate D2E/DX2                !
 ! D39   D(5,6,8,22)           -98.0387         estimate D2E/DX2                !
 ! D40   D(5,6,8,23)           141.4831         estimate D2E/DX2                !
 ! D41   D(5,6,8,24)            22.3586         estimate D2E/DX2                !
 ! D42   D(7,6,8,22)            91.2415         estimate D2E/DX2                !
 ! D43   D(7,6,8,23)           -29.2367         estimate D2E/DX2                !
 ! D44   D(7,6,8,24)          -148.3612         estimate D2E/DX2                !
 ! D45   D(3,7,21,10)          -94.4702         estimate D2E/DX2                !
 ! D46   D(6,7,21,10)           94.3035         estimate D2E/DX2                !
 ! D47   D(6,8,24,13)           33.0821         estimate D2E/DX2                !
 ! D48   D(22,8,24,13)         153.2913         estimate D2E/DX2                !
 ! D49   D(23,8,24,13)         -85.2081         estimate D2E/DX2                !
 ! D50   D(15,10,11,12)       -110.4715         estimate D2E/DX2                !
 ! D51   D(21,10,11,12)        -12.5028         estimate D2E/DX2                !
 ! D52   D(9,10,15,1)           65.4049         estimate D2E/DX2                !
 ! D53   D(21,10,15,1)         -57.4295         estimate D2E/DX2                !
 ! D54   D(9,10,21,7)          -32.5022         estimate D2E/DX2                !
 ! D55   D(15,10,21,7)          79.8801         estimate D2E/DX2                !
 ! D56   D(9,11,13,24)         -21.3425         estimate D2E/DX2                !
 ! D57   D(12,13,24,8)          36.7705         estimate D2E/DX2                !
 --------------------------------------------------------------------------------
 Trust Radius=3.00D-01 FncErr=1.00D-07 GrdErr=1.00D-06 EigMax=2.50D+02 EigMin=1.00D-04
 Number of steps in this run=    138 maximum allowed number of steps=    144.
 GradGradGradGradGradGradGradGradGradGradGradGradGradGradGradGradGradGrad

                          Input orientation:                          
 ---------------------------------------------------------------------
 Center     Atomic      Atomic             Coordinates (Angstroms)
 Number     Number       Type             X           Y           Z
 ---------------------------------------------------------------------
      1          6           0        2.850030    1.153470    0.350060
      2          6           0        2.811240   -0.351760    0.107860
      3          7           0        1.431530   -0.822890    0.129790
      4          6           0        0.716230   -1.134430    1.261300
      5          6           0       -0.556080   -1.389090    0.867870
      6          7           0       -0.593750   -1.219530   -0.492360
      7          6           0        0.606930   -0.819540   -0.922080
      8          6           0       -1.796040   -1.280780   -1.305620
      9          6           0       -0.576420    1.737680   -0.566860
     10          7           0        0.274570    1.524530   -1.345080
     11          7           0       -1.469040    1.966020    0.317320
     12          6           0       -2.284950    1.068980    0.767500
     13          7           0       -2.983070    0.239260    1.191730
     14          1           0        2.444080    1.389100    1.332850
     15          1           0        2.249740    1.661120   -0.407070
     16          1           0        3.879850    1.502680    0.293010
     17          1           0        3.364420   -0.893850    0.880180
     18          1           0        3.234240   -0.598280   -0.870000
     19          1           0        1.173490   -1.156440    2.234580
     20          1           0       -1.440810   -1.633810    1.429920
     21          1           0        0.889340   -0.653520   -1.945030
     22          1           0       -1.888270   -2.268670   -1.759620
     23          1           0       -1.729590   -0.517400   -2.080360
     24          1           0       -2.652940   -1.080340   -0.660340
 ---------------------------------------------------------------------
                    Distance matrix (angstroms):
                    1          2          3          4          5
     1  C    0.000000
     2  C    1.525085   0.000000
     3  N    2.442675   1.458096   0.000000
     4  C    3.258519   2.516359   1.374418   0.000000
     5  C    4.281860   3.604513   2.194525   1.355880   0.000000
     6  N    4.266195   3.564722   2.155494   2.190574   1.371275
     7  C    3.246938   2.477615   1.336565   2.208676   2.209276
     8  C    5.500256   4.907956   3.561920   3.594718   2.504654
     9  C    3.594802   4.036985   3.327717   3.641721   3.440284
    10  N    3.105508   3.473643   3.004027   3.749446   3.751841
    11  N    4.394960   4.872040   4.028212   3.908874   3.520421
    12  C    5.152612   5.331489   4.218776   3.755787   3.006854
    13  N    5.963996   5.924366   4.663108   3.946731   2.940525
    14  H    1.089125   2.160093   2.713947   3.059214   4.115277
    15  H    1.091468   2.152236   2.669830   3.598640   4.336113
    16  H    1.088913   2.148291   3.380708   4.230890   5.326375
    17  H    2.176498   1.093777   2.074653   2.686269   3.951675
    18  H    2.169053   1.093577   2.073594   3.342196   4.244066
    19  H    3.420217   2.802262   2.146621   1.075567   2.216627
    20  H    5.229372   4.633727   3.255498   2.220503   1.076353
    21  H    3.518090   2.828271   2.151170   3.246813   3.246954
    22  H    6.213958   5.408088   4.084265   4.146791   3.074426
    23  H    5.447171   5.043301   3.869208   4.186819   3.290749
    24  H    6.024408   5.565808   4.168151   3.879038   2.612963
                    6          7          8          9         10
     6  N    0.000000
     7  C    1.336519   0.000000
     8  C    1.452806   2.476714   0.000000
     9  C    2.958199   2.840048   3.338314   0.000000
    10  N    3.001829   2.405007   3.486939   1.172708   0.000000
    11  N    3.401388   3.688510   3.644527   1.276982   2.449217
    12  C    3.112022   3.845017   3.171472   2.268645   3.349875
    13  N    3.266968   4.298529   3.155364   3.336145   4.324297
    14  H    4.400540   3.652112   5.662897   3.585223   3.449119
    15  H    4.048562   3.019559   5.082372   2.831709   2.190848
    16  H    5.295312   4.192989   6.520659   4.544551   3.960033
    17  H    4.202028   3.295059   5.617632   4.954704   4.510822
    18  H    3.896418   2.637125   5.095026   4.479926   3.673101
    19  H    3.250126   3.224747   4.622400   4.391604   4.561757
    20  H    2.141098   3.223070   2.781007   4.012636   4.540734
    21  H    2.151784   1.074125   2.830824   3.125003   2.341321
    22  H    2.093424   3.004576   1.091123   4.381149   4.386124
    23  H    2.074816   2.625305   1.089673   2.950571   2.954111
    24  H    2.070714   3.280743   1.091256   3.501701   3.978006
                   11         12         13         14         15
    11  N    0.000000
    12  C    1.293465   0.000000
    13  N    2.457352   1.164379   0.000000
    14  H    4.083705   4.773450   5.549415   0.000000
    15  H    3.800925   4.721616   5.653331   1.771746   0.000000
    16  H    5.368976   6.198225   7.035879   1.776402   1.781144
    17  H    5.644289   5.981704   6.455357   2.502758   3.070406
    18  H    5.486912   5.993548   6.603571   3.070274   2.507675
    19  H    4.517589   4.366420   4.506940   2.984508   4.009398
    20  H    3.767951   2.907997   2.437969   4.923391   5.277429
    21  H    4.188338   4.516740   5.062794   4.163413   3.094118
    22  H    4.735191   4.205187   4.024769   6.458476   5.864791
    23  H    3.461810   3.306861   3.584734   5.718764   4.835382
    24  H    3.411414   2.606477   2.297932   6.004211   5.622812
                   16         17         18         19         20
    16  H    0.000000
    17  H    2.520673   0.000000
    18  H    2.486652   1.779730   0.000000
    19  H    4.262041   2.589117   3.767844   0.000000
    20  H    6.280092   4.892851   5.312066   2.776675   0.000000
    21  H    4.312908   3.763720   2.580174   4.219338   4.216735
    22  H    7.190798   6.037336   5.460928   5.154131   3.282748
    23  H    6.417120   5.903850   5.109904   5.239747   3.694838
    24  H    7.089303   6.214226   5.910603   4.798741   2.478866
                   21         22         23         24
    21  H    0.000000
    22  H    3.218416   0.000000
    23  H    2.625955   1.787456   0.000000
    24  H    3.792143   1.790325   1.784918   0.000000
 Stoichiometry    C8H11N5
 Framework group  C1[X(C8H11N5)]
 Deg. of freedom    66
 Full point group                 C1      NOp   1
 Largest Abelian subgroup         C1      NOp   1
 Largest concise Abelian subgroup C1      NOp   1
                         Standard orientation:                         
 ---------------------------------------------------------------------
 Center     Atomic      Atomic             Coordinates (Angstroms)
 Number     Number       Type             X           Y           Z
 ---------------------------------------------------------------------
      1          6           0       -2.842676    1.216831   -0.415089
      2          6           0       -2.853411   -0.283817   -0.143385
      3          7           0       -1.488446   -0.796472   -0.133428
      4          6           0       -0.764960   -1.151582   -1.246752
      5          6           0        0.492605   -1.436495   -0.827506
      6          7           0        0.513693   -1.241355    0.529649
      7          6           0       -0.681010   -0.797126    0.931680
      8          6           0        1.700445   -1.322604    1.363713
      9          6           0        0.584847    1.715937    0.546982
     10          7           0       -0.284521    1.543801    1.314973
     11          7           0        1.497973    1.899915   -0.326539
     12          6           0        2.293387    0.970097   -0.745831
     13          7           0        2.972709    0.111601   -1.142424
     14          1           0       -2.414141    1.420752   -1.395378
     15          1           0       -2.239425    1.721071    0.341967
     16          1           0       -3.862213    1.597839   -0.381806
     17          1           0       -3.410381   -0.824188   -0.914185
     18          1           0       -3.299238   -0.498206    0.831903
     19          1           0       -1.207091   -1.179049   -2.226859
     20          1           0        1.378362   -1.718684   -1.370036
     21          1           0       -0.974541   -0.602570    1.946437
     22          1           0        1.755425   -2.303673    1.838086
     23          1           0        1.644820   -0.542447    2.122427
     24          1           0        2.573214   -1.160726    0.728961
 ---------------------------------------------------------------------
 Rotational constants (GHZ):           1.2284177           0.7096952           0.6031296
 Standard basis: def2SVP (5D, 7F)
 There are   250 symmetry adapted cartesian basis functions of A   symmetry.
 There are   237 symmetry adapted basis functions of A   symmetry.
   237 basis functions,   402 primitive gaussians,   250 cartesian basis functions
    47 alpha electrons       47 beta electrons
       nuclear repulsion energy       796.0265080885 Hartrees.
 NAtoms=   24 NActive=   24 NUniq=   24 SFac= 1.00D+00 NAtFMM=   60 NAOKFM=F Big=F
 Integral buffers will be    131072 words long.
 Raffenetti 2 integral format.
 Two-electron integral symmetry is turned on.
 Nuclear repulsion after empirical dispersion term =      796.0068626202 Hartrees.
 Standard density basis: W06 (5D, 7F)
   758 Density fitting functions
 There are   758 symmetry adapted density basis functions of A   symmetry.
 One-electron integrals computed using PRISM.
   1 Symmetry operations used in ECPInt.
 ECPInt:  NShTT=    6216 NPrTT=   22568 LenC2=    6103 LenP2D=   16865.
 LDataN:  DoStor=T MaxTD1= 4 Len=   56
 NBasis=   237 RedAO= T EigKep=  9.80D-04  NBF=   237
 NBsUse=   237 1.00D-06 EigRej= -1.00D+00 NBFU=   237
 ExpMin= 1.22D-01 ExpMax= 1.71D+03 ExpMxC= 2.58D+02 IAcc=3 IRadAn=         5 AccDes= 0.00D+00
 Harris functional with IExCor= 4639 and IRadAn=       5 diagonalized for initial guess.
 HarFok:  IExCor= 4639 AccDes= 0.00D+00 IRadAn=         5 IDoV= 1 UseB2=F ITyADJ=14
 ICtDFT=  3500011 ScaDFX=  1.000000  1.000000  1.000000  1.000000
 FoFCou: FMM=F IPFlag=           0 FMFlag=      100000 FMFlg1=           0
         NFxFlg=           0 DoJE=T BraDBF=F KetDBF=T FulRan=T
         wScrn=  0.000000 ICntrl=       500 IOpCl=  0 I1Cent=   200000004 NGrid=           0
         NMat0=    1 NMatS0=      1 NMatT0=    0 NMatD0=    1 NMtDS0=    0 NMtDT0=    0
 Petite list used in FoFCou.
 Requested convergence on RMS density matrix=1.00D-08 within 128 cycles.
 Requested convergence on MAX density matrix=1.00D-06.
 Requested convergence on             energy=1.00D-06.
 No special actions if energy rises.
 Integral accuracy reduced to 1.0D-05 until final iterations.
 Initial convergence to 1.0D-05 achieved.  Increase integral accuracy.
 SCF Done:  E(RwB97XD) =  -584.543737399     A.U. after   16 cycles
            NFock= 16  Conv=0.54D-08     -V/T= 2.0099

 **********************************************************************

            Population analysis using the SCF Density.

 **********************************************************************

 Orbital symmetries:
       Occupied  (A) (A) (A) (A) (A) (A) (A) (A) (A) (A) (A) (A)
                 (A) (A) (A) (A) (A) (A) (A) (A) (A) (A) (A) (A)
                 (A) (A) (A) (A) (A) (A) (A) (A) (A) (A) (A) (A)
                 (A) (A) (A) (A) (A) (A) (A) (A) (A) (A) (A)
       Virtual   (A) (A) (A) (A) (A) (A) (A) (A) (A) (A) (A) (A)
                 (A) (A) (A) (A) (A) (A) (A) (A) (A) (A) (A) (A)
                 (A) (A) (A) (A) (A) (A) (A) (A) (A) (A) (A) (A)
                 (A) (A) (A) (A) (A) (A) (A) (A) (A) (A) (A) (A)
                 (A) (A) (A) (A) (A) (A) (A) (A) (A) (A) (A) (A)
                 (A) (A) (A) (A) (A) (A) (A) (A) (A) (A) (A) (A)
                 (A) (A) (A) (A) (A) (A) (A) (A) (A) (A) (A) (A)
                 (A) (A) (A) (A) (A) (A) (A) (A) (A) (A) (A) (A)
                 (A) (A) (A) (A) (A) (A) (A) (A) (A) (A) (A) (A)
                 (A) (A) (A) (A) (A) (A) (A) (A) (A) (A) (A) (A)
                 (A) (A) (A) (A) (A) (A) (A) (A) (A) (A) (A) (A)
                 (A) (A) (A) (A) (A) (A) (A) (A) (A) (A) (A) (A)
                 (A) (A) (A) (A) (A) (A) (A) (A) (A) (A) (A) (A)
                 (A) (A) (A) (A) (A) (A) (A) (A) (A) (A) (A) (A)
                 (A) (A) (A) (A) (A) (A) (A) (A) (A) (A) (A) (A)
                 (A) (A) (A) (A) (A) (A) (A) (A) (A) (A)
 The electronic state is 1-A.
 Alpha  occ. eigenvalues --  -14.55602 -14.55452 -14.42583 -14.39128 -14.38463
 Alpha  occ. eigenvalues --  -10.42555 -10.37801 -10.36976 -10.36716 -10.35856
 Alpha  occ. eigenvalues --  -10.33975 -10.32857 -10.30230  -1.19630  -1.07555
 Alpha  occ. eigenvalues --   -1.03408  -0.95698  -0.92949  -0.92394  -0.89380
 Alpha  occ. eigenvalues --   -0.84378  -0.77450  -0.74930  -0.72390  -0.70488
 Alpha  occ. eigenvalues --   -0.66922  -0.62412  -0.59473  -0.59236  -0.57581
 Alpha  occ. eigenvalues --   -0.56853  -0.55308  -0.54242  -0.51202  -0.50250
 Alpha  occ. eigenvalues --   -0.49319  -0.48544  -0.47633  -0.46551  -0.42353
 Alpha  occ. eigenvalues --   -0.41103  -0.41085  -0.40434  -0.38807  -0.34541
 Alpha  occ. eigenvalues --   -0.30631  -0.27811
 Alpha virt. eigenvalues --    0.03808   0.07242   0.11773   0.13304   0.14286
 Alpha virt. eigenvalues --    0.14538   0.15501   0.16503   0.17607   0.17995
 Alpha virt. eigenvalues --    0.19149   0.19601   0.20270   0.20655   0.21209
 Alpha virt. eigenvalues --    0.22752   0.23215   0.23445   0.24695   0.27674
 Alpha virt. eigenvalues --    0.28146   0.29344   0.30777   0.33425   0.34749
 Alpha virt. eigenvalues --    0.36016   0.41133   0.43550   0.44023   0.47529
 Alpha virt. eigenvalues --    0.48809   0.49060   0.50720   0.51991   0.53319
 Alpha virt. eigenvalues --    0.54650   0.56221   0.56615   0.59148   0.59742
 Alpha virt. eigenvalues --    0.60732   0.64013   0.64685   0.65629   0.67387
 Alpha virt. eigenvalues --    0.67775   0.68639   0.69434   0.69992   0.71004
 Alpha virt. eigenvalues --    0.71510   0.72647   0.73654   0.74720   0.75454
 Alpha virt. eigenvalues --    0.75861   0.76172   0.76881   0.77412   0.78712
 Alpha virt. eigenvalues --    0.79160   0.81924   0.82524   0.85146   0.85908
 Alpha virt. eigenvalues --    0.87598   0.89052   0.91290   0.92562   0.94046
 Alpha virt. eigenvalues --    0.96999   0.97978   1.00432   1.01769   1.05345
 Alpha virt. eigenvalues --    1.07588   1.09482   1.10255   1.12360   1.14317
 Alpha virt. eigenvalues --    1.14937   1.16287   1.17793   1.18283   1.21493
 Alpha virt. eigenvalues --    1.24235   1.25182   1.25974   1.29236   1.32356
 Alpha virt. eigenvalues --    1.32407   1.37912   1.40018   1.41534   1.45957
 Alpha virt. eigenvalues --    1.48593   1.50599   1.51943   1.54962   1.56254
 Alpha virt. eigenvalues --    1.58468   1.62525   1.63219   1.64611   1.65693
 Alpha virt. eigenvalues --    1.67084   1.68538   1.71908   1.75125   1.76015
 Alpha virt. eigenvalues --    1.80803   1.81151   1.81880   1.82428   1.82815
 Alpha virt. eigenvalues --    1.84040   1.85266   1.86877   1.87443   1.87956
 Alpha virt. eigenvalues --    1.89216   1.90673   1.90901   1.92587   1.92970
 Alpha virt. eigenvalues --    1.93702   1.95080   1.95696   1.96415   1.98511
 Alpha virt. eigenvalues --    2.01272   2.04400   2.07683   2.09477   2.11460
 Alpha virt. eigenvalues --    2.12571   2.15380   2.18410   2.23168   2.27544
 Alpha virt. eigenvalues --    2.32376   2.35466   2.37499   2.38214   2.40580
 Alpha virt. eigenvalues --    2.41390   2.42001   2.44082   2.45395   2.47527
 Alpha virt. eigenvalues --    2.48218   2.49957   2.51192   2.52733   2.53747
 Alpha virt. eigenvalues --    2.54785   2.56187   2.61025   2.62635   2.65271
 Alpha virt. eigenvalues --    2.68971   2.71315   2.72853   2.77363   2.78418
 Alpha virt. eigenvalues --    2.82005   2.82369   2.88545   2.90386   2.90713
 Alpha virt. eigenvalues --    2.94253   2.95687   2.99664   3.01835   3.02148
 Alpha virt. eigenvalues --    3.04744   3.05406   3.08221   3.10634   3.13701
 Alpha virt. eigenvalues --    3.16356   3.22609   3.40022   3.41888   3.42724
 Alpha virt. eigenvalues --    3.49000   3.55758   3.58898   3.77348   3.83962
          Condensed to atoms (all electrons):
               1          2          3          4          5          6
     1  C    4.605554   0.428918  -0.060845  -0.003983  -0.000263  -0.000228
     2  C    0.428918   4.575031   0.271772  -0.025479   0.003161   0.003817
     3  N   -0.060845   0.271772   6.458534   0.370042  -0.050146  -0.060246
     4  C   -0.003983  -0.025479   0.370042   4.858666   0.506206  -0.053440
     5  C   -0.000263   0.003161  -0.050146   0.506206   4.802003   0.385617
     6  N   -0.000228   0.003817  -0.060246  -0.053440   0.385617   6.434478
     7  C   -0.006243  -0.031822   0.418293  -0.106417  -0.096798   0.407344
     8  C    0.000009  -0.000104   0.003566   0.006048  -0.031645   0.285614
     9  C    0.003490  -0.000974  -0.006074   0.003966  -0.001478  -0.012745
    10  N   -0.021798  -0.001575  -0.023905   0.001293   0.001056  -0.026546
    11  N   -0.000151   0.000067   0.000395   0.000444  -0.002874   0.003374
    12  C    0.000006   0.000031   0.000387  -0.003754   0.006122  -0.002670
    13  N    0.000002  -0.000001  -0.000013  -0.001245  -0.003227  -0.005839
    14  H    0.394703  -0.018518  -0.003682   0.005834  -0.000978   0.000065
    15  H    0.385648  -0.011387  -0.004314  -0.001093   0.000256  -0.000091
    16  H    0.389737  -0.024784   0.005369  -0.000060   0.000029  -0.000004
    17  H   -0.025169   0.393902  -0.020083  -0.008153   0.001530  -0.000303
    18  H   -0.020514   0.389217  -0.017893   0.005866  -0.000649   0.000556
    19  H   -0.001299   0.000301  -0.033211   0.433480  -0.037632   0.003870
    20  H    0.000011  -0.000115   0.003187  -0.036686   0.423589  -0.026019
    21  H   -0.001461   0.001057  -0.019191   0.002915   0.003223  -0.018576
    22  H    0.000002   0.000007   0.000003  -0.000135  -0.000268  -0.023435
    23  H   -0.000006   0.000013   0.000561  -0.000376   0.003955  -0.020840
    24  H   -0.000002   0.000010  -0.000126   0.001698  -0.009453  -0.015005
               7          8          9         10         11         12
     1  C   -0.006243   0.000009   0.003490  -0.021798  -0.000151   0.000006
     2  C   -0.031822  -0.000104  -0.000974  -0.001575   0.000067   0.000031
     3  N    0.418293   0.003566  -0.006074  -0.023905   0.000395   0.000387
     4  C   -0.106417   0.006048   0.003966   0.001293   0.000444  -0.003754
     5  C   -0.096798  -0.031645  -0.001478   0.001056  -0.002874   0.006122
     6  N    0.407344   0.285614  -0.012745  -0.026546   0.003374  -0.002670
     7  C    4.711442  -0.032191   0.009876   0.059314  -0.005371  -0.002622
     8  C   -0.032191   4.553328  -0.000885  -0.002417  -0.000002   0.001141
     9  C    0.009876  -0.000885   5.019739   0.661270   0.559550  -0.097377
    10  N    0.059314  -0.002417   0.661270   6.489160  -0.026252  -0.002328
    11  N   -0.005371  -0.000002   0.559550  -0.026252   6.170040   0.527894
    12  C   -0.002622   0.001141  -0.097377  -0.002328   0.527894   4.963141
    13  N    0.000688  -0.019693  -0.004219   0.000433  -0.023688   0.788598
    14  H   -0.001345  -0.000004   0.000633  -0.000784   0.000336   0.000021
    15  H    0.001343   0.000010  -0.004634   0.043324  -0.000182  -0.000037
    16  H    0.000356   0.000000  -0.000004   0.000702  -0.000008  -0.000000
    17  H    0.004926   0.000010  -0.000037  -0.000035  -0.000000   0.000000
    18  H   -0.006396  -0.000008   0.000147  -0.000530   0.000002  -0.000001
    19  H    0.004781  -0.000109  -0.000007  -0.000039   0.000013   0.000035
    20  H    0.004685  -0.004990  -0.000156  -0.000007   0.000162  -0.004947
    21  H    0.412143  -0.001194  -0.004397   0.007475   0.000175   0.000009
    22  H   -0.002509   0.400008   0.000023   0.000036  -0.000022   0.000326
    23  H   -0.006575   0.398288   0.004681   0.008124  -0.001170  -0.001044
    24  H    0.003176   0.384010  -0.001092   0.000257  -0.001174  -0.001634
              13         14         15         16         17         18
     1  C    0.000002   0.394703   0.385648   0.389737  -0.025169  -0.020514
     2  C   -0.000001  -0.018518  -0.011387  -0.024784   0.393902   0.389217
     3  N   -0.000013  -0.003682  -0.004314   0.005369  -0.020083  -0.017893
     4  C   -0.001245   0.005834  -0.001093  -0.000060  -0.008153   0.005866
     5  C   -0.003227  -0.000978   0.000256   0.000029   0.001530  -0.000649
     6  N   -0.005839   0.000065  -0.000091  -0.000004  -0.000303   0.000556
     7  C    0.000688  -0.001345   0.001343   0.000356   0.004926  -0.006396
     8  C   -0.019693  -0.000004   0.000010   0.000000   0.000010  -0.000008
     9  C   -0.004219   0.000633  -0.004634  -0.000004  -0.000037   0.000147
    10  N    0.000433  -0.000784   0.043324   0.000702  -0.000035  -0.000530
    11  N   -0.023688   0.000336  -0.000182  -0.000008  -0.000000   0.000002
    12  C    0.788598   0.000021  -0.000037  -0.000000   0.000000  -0.000001
    13  N    6.297876  -0.000002  -0.000002   0.000000   0.000000  -0.000000
    14  H   -0.000002   0.611846  -0.015775  -0.018673  -0.008782   0.006604
    15  H   -0.000002  -0.015775   0.526942  -0.010096   0.005421  -0.007776
    16  H    0.000000  -0.018673  -0.010096   0.618185  -0.003004  -0.004791
    17  H    0.000000  -0.008782   0.005421  -0.003004   0.625470  -0.025338
    18  H   -0.000000   0.006604  -0.007776  -0.004791  -0.025338   0.620699
    19  H   -0.000024   0.001088   0.000001  -0.000055   0.001100   0.000131
    20  H    0.023501  -0.000001   0.000004   0.000000   0.000003   0.000007
    21  H   -0.000010   0.000013   0.001059  -0.000025   0.000039   0.000893
    22  H    0.000524  -0.000000  -0.000001  -0.000000  -0.000001  -0.000003
    23  H    0.000246   0.000002  -0.000002  -0.000000   0.000001   0.000005
    24  H    0.040575   0.000001  -0.000004   0.000000  -0.000000   0.000000
              19         20         21         22         23         24
     1  C   -0.001299   0.000011  -0.001461   0.000002  -0.000006  -0.000002
     2  C    0.000301  -0.000115   0.001057   0.000007   0.000013   0.000010
     3  N   -0.033211   0.003187  -0.019191   0.000003   0.000561  -0.000126
     4  C    0.433480  -0.036686   0.002915  -0.000135  -0.000376   0.001698
     5  C   -0.037632   0.423589   0.003223  -0.000268   0.003955  -0.009453
     6  N    0.003870  -0.026019  -0.018576  -0.023435  -0.020840  -0.015005
     7  C    0.004781   0.004685   0.412143  -0.002509  -0.006575   0.003176
     8  C   -0.000109  -0.004990  -0.001194   0.400008   0.398288   0.384010
     9  C   -0.000007  -0.000156  -0.004397   0.000023   0.004681  -0.001092
    10  N   -0.000039  -0.000007   0.007475   0.000036   0.008124   0.000257
    11  N    0.000013   0.000162   0.000175  -0.000022  -0.001170  -0.001174
    12  C    0.000035  -0.004947   0.000009   0.000326  -0.001044  -0.001634
    13  N   -0.000024   0.023501  -0.000010   0.000524   0.000246   0.040575
    14  H    0.001088  -0.000001   0.000013  -0.000000   0.000002   0.000001
    15  H    0.000001   0.000004   0.001059  -0.000001  -0.000002  -0.000004
    16  H   -0.000055   0.000000  -0.000025  -0.000000  -0.000000   0.000000
    17  H    0.001100   0.000003   0.000039  -0.000001   0.000001  -0.000000
    18  H    0.000131   0.000007   0.000893  -0.000003   0.000005   0.000000
    19  H    0.567004  -0.003048  -0.000164   0.000007   0.000007  -0.000011
    20  H   -0.003048   0.526473  -0.000164   0.000041   0.000067   0.002354
    21  H   -0.000164  -0.000164   0.517972   0.000270   0.000898   0.000065
    22  H    0.000007   0.000041   0.000270   0.588079  -0.019906  -0.012795
    23  H    0.000007   0.000067   0.000898  -0.019906   0.560970  -0.008164
    24  H   -0.000011   0.002354   0.000065  -0.012795  -0.008164   0.515815
 Mulliken charges:
               1
     1  C   -0.066118
     2  C    0.047456
     3  N   -0.232379
     4  C    0.044362
     5  C    0.098662
     6  N   -0.258748
     7  C    0.259921
     8  C    0.061209
     9  C   -0.129298
    10  N   -0.166230
    11  N   -0.201557
    12  C   -0.171298
    13  N   -0.094481
    14  H    0.047397
    15  H    0.091388
    16  H    0.047124
    17  H    0.058503
    18  H    0.059772
    19  H    0.063779
    20  H    0.092048
    21  H    0.096975
    22  H    0.069750
    23  H    0.080265
    24  H    0.101498
 Sum of Mulliken charges =  -0.00000
 Mulliken charges with hydrogens summed into heavy atoms:
               1
     1  C    0.119790
     2  C    0.165732
     3  N   -0.232379
     4  C    0.108141
     5  C    0.190709
     6  N   -0.258748
     7  C    0.356896
     8  C    0.312723
     9  C   -0.129298
    10  N   -0.166230
    11  N   -0.201557
    12  C   -0.171298
    13  N   -0.094481
 Electronic spatial extent (au):  <R**2>=           2117.7363
 Charge=             -0.0000 electrons
 Dipole moment (field-independent basis, Debye):
    X=             -6.3867    Y=             -6.0511    Z=              1.2235  Tot=              8.8827
 Quadrupole moment (field-independent basis, Debye-Ang):
   XX=            -79.7615   YY=            -81.0359   ZZ=            -73.8418
   XY=             -2.8472   XZ=             10.5301   YZ=             -3.8760
 Traceless Quadrupole moment (field-independent basis, Debye-Ang):
   XX=             -1.5485   YY=             -2.8228   ZZ=              4.3713
   XY=             -2.8472   XZ=             10.5301   YZ=             -3.8760
 Octapole moment (field-independent basis, Debye-Ang**2):
  XXX=            -82.8019  YYY=            -21.5649  ZZZ=              0.9863  XYY=             -0.0828
  XXY=            -10.2806  XXZ=             25.3607  XZZ=            -11.7340  YZZ=            -18.8010
  YYZ=             -2.3434  XYZ=              0.4184
 Hexadecapole moment (field-independent basis, Debye-Ang**3):
 XXXX=          -1683.9264 YYYY=           -815.5466 ZZZZ=           -445.7756 XXXY=             -8.8942
 XXXZ=             87.6286 YYYX=            -33.6290 YYYZ=            -12.5872 ZZZX=             29.7555
 ZZZY=            -14.1479 XXYY=           -391.9670 XXZZ=           -352.7008 YYZZ=           -208.6158
 XXYZ=             -5.0167 YYXZ=             12.1893 ZZXY=              3.7393
 N-N= 7.960068626202D+02 E-N=-2.948376879113D+03  KE= 5.788315920080D+02
   1 Symmetry operations used in ECPInt.
 ECPInt:  NShTT=    6216 NPrTT=   22568 LenC2=    6103 LenP2D=   16865.
 LDataN:  DoStor=T MaxTD1= 5 Len=  102
 Calling FoFJK, ICntrl=      2127 FMM=F ISym2X=0 I1Cent= 0 IOpClX= 0 NMat=1 NMatS=1 NMatT=0.
 ***** Axes restored to original set *****
 -------------------------------------------------------------------
 Center     Atomic                   Forces (Hartrees/Bohr)
 Number     Number              X              Y              Z
 -------------------------------------------------------------------
      1        6           0.004757173   -0.007114079   -0.003404740
      2        6          -0.004910229    0.011780832    0.001381674
      3        7           0.004450387   -0.001455616   -0.010227613
      4        6          -0.003144636   -0.002158599   -0.002839743
      5        6           0.005354113   -0.003185670    0.002960458
      6        7          -0.001485350    0.002534659   -0.007578799
      7        6           0.001530804   -0.020490265    0.017511768
      8        6           0.003137495   -0.005668441   -0.001234836
      9        6           0.003233370    0.001228532   -0.003028188
     10        7           0.001799415    0.010601919   -0.011526732
     11        7          -0.006650236    0.014115240    0.007545389
     12        6           0.004165693    0.004426090   -0.000829840
     13        7          -0.013493726   -0.008197418    0.007178855
     14        1          -0.002079555    0.002537430    0.006322641
     15        1          -0.001573789    0.002509360   -0.001943835
     16        1           0.006782767    0.002798435    0.001231159
     17        1           0.001595434   -0.004052799    0.000817878
     18        1           0.001709407   -0.002460858   -0.002181718
     19        1           0.002695441    0.000173632    0.006741124
     20        1          -0.005230913   -0.000825580    0.003674153
     21        1           0.001566529    0.001794341   -0.005688060
     22        1          -0.000718530   -0.004591015   -0.002977366
     23        1          -0.000606912    0.004094849   -0.003210170
     24        1          -0.002884152    0.001605021    0.001306541
 -------------------------------------------------------------------
 Cartesian Forces:  Max     0.020490265 RMS     0.005948974

 GradGradGradGradGradGradGradGradGradGradGradGradGradGradGradGradGradGrad
 Berny optimization.
 FormGI is forming the generalized inverse of G from B-inverse, IUseBI=4.
 Internal  Forces:  Max     0.019089938 RMS     0.004747099
 Search for a local minimum.
 Step number   1 out of a maximum of  138
 All quantities printed in internal units (Hartrees-Bohrs-Radians)
 Mixed Optimization -- RFO/linear search
 Second derivative matrix not updated -- first step.
 ITU=  0
     Eigenvalues ---    0.00328   0.00435   0.00540   0.00936   0.01349
     Eigenvalues ---    0.01745   0.01798   0.02027   0.02261   0.02345
     Eigenvalues ---    0.02474   0.02629   0.02844   0.03075   0.03226
     Eigenvalues ---    0.03705   0.04047   0.04233   0.05316   0.05447
     Eigenvalues ---    0.06002   0.06440   0.06670   0.07485   0.08162
     Eigenvalues ---    0.08937   0.09198   0.09929   0.10799   0.10942
     Eigenvalues ---    0.11199   0.12272   0.13596   0.13803   0.15887
     Eigenvalues ---    0.15971   0.15998   0.18525   0.19634   0.21059
     Eigenvalues ---    0.22492   0.22955   0.23212   0.29001   0.33557
     Eigenvalues ---    0.34211   0.34380   0.34402   0.34683   0.34850
     Eigenvalues ---    0.34859   0.34914   0.34939   0.36296   0.36439
     Eigenvalues ---    0.36535   0.37202   0.44154   0.45901   0.50933
     Eigenvalues ---    0.54710   0.55420   0.67639   0.72852   1.17275
     Eigenvalues ---    1.22801
 RFO step:  Lambda=-1.75952342D-02 EMin= 3.28004274D-03
 Linear search not attempted -- first point.
 Maximum step size (   0.300) exceeded in Quadratic search.
    -- Step size scaled by   0.741
 Iteration  1 RMS(Cart)=  0.09520740 RMS(Int)=  0.00336764
 Iteration  2 RMS(Cart)=  0.00423409 RMS(Int)=  0.00054114
 Iteration  3 RMS(Cart)=  0.00001464 RMS(Int)=  0.00054109
 Iteration  4 RMS(Cart)=  0.00000001 RMS(Int)=  0.00054109
 Variable       Old X    -DE/DX   Delta X   Delta X   Delta X     New X
                                 (Linear)    (Quad)   (Total)
    R1        2.88199   0.00207   0.00000   0.00714   0.00710   2.88909
    R2        2.05815   0.00703   0.00000   0.01421   0.01421   2.07236
    R3        2.06258   0.00893   0.00000   0.01719   0.01755   2.08013
    R4        2.05775   0.00725   0.00000   0.01464   0.01464   2.07239
    R5        2.75540   0.00362   0.00000   0.00832   0.00835   2.76376
    R6        2.06694   0.00339   0.00000   0.00696   0.00696   2.07390
    R7        2.06656   0.00317   0.00000   0.00649   0.00649   2.07305
    R8        2.59727   0.00574   0.00000   0.00877   0.00879   2.60607
    R9        2.52574  -0.00499   0.00000  -0.00571  -0.00585   2.51989
   R10        2.56224   0.00371   0.00000   0.00614   0.00592   2.56816
   R11        2.03253   0.00724   0.00000   0.01402   0.01402   2.04655
   R12        2.59133   0.00741   0.00000   0.01062   0.01047   2.60181
   R13        2.03401   0.00641   0.00000   0.01243   0.01243   2.04645
   R14        2.52566  -0.00077   0.00000  -0.00120  -0.00096   2.52470
   R15        2.74541   0.00519   0.00000   0.00905   0.00857   2.75397
   R16        2.02980   0.00702   0.00000   0.01659   0.01672   2.04652
   R17        2.06192   0.00546   0.00000   0.01110   0.01110   2.07302
   R18        2.05918   0.00511   0.00000   0.01036   0.01036   2.06954
   R19        2.06218   0.00777   0.00000   0.01713   0.01742   2.07959
   R20        2.21610   0.01413   0.00000   0.00818   0.00782   2.22392
   R21        2.41315   0.01825   0.00000   0.01714   0.01680   2.42995
   R22        4.14010   0.00574   0.00000   0.07266   0.07287   4.21297
   R23        4.42446   0.01402   0.00000   0.22672   0.22668   4.65113
   R24        2.44429   0.01306   0.00000   0.01290   0.01275   2.45704
   R25        2.20036   0.01909   0.00000   0.01072   0.01052   2.21088
   R26        4.34246   0.00588   0.00000   0.10634   0.10682   4.44928
    A1        1.92555   0.00158   0.00000   0.00376   0.00343   1.92897
    A2        1.91230  -0.00237   0.00000   0.01195   0.01161   1.92391
    A3        1.90949   0.00081   0.00000  -0.00139  -0.00094   1.90855
    A4        1.89688   0.00093   0.00000  -0.00104  -0.00057   1.89630
    A5        1.90752  -0.00127   0.00000  -0.00927  -0.00931   1.89821
    A6        1.91202   0.00031   0.00000  -0.00411  -0.00445   1.90756
    A7        1.91834   0.00670   0.00000   0.03407   0.03318   1.95151
    A8        1.94353   0.00139   0.00000   0.00155   0.00224   1.94577
    A9        1.93335  -0.00206   0.00000   0.00182   0.00156   1.93491
   A10        1.88368  -0.00419   0.00000  -0.02020  -0.02050   1.86318
   A11        1.88244  -0.00158   0.00000  -0.00456  -0.00418   1.87825
   A12        1.90079  -0.00046   0.00000  -0.01377  -0.01400   1.88679
   A13        2.18717   0.00175   0.00000   0.00177   0.00136   2.18854
   A14        2.17869   0.00082   0.00000   0.00835   0.00866   2.18735
   A15        1.90433  -0.00270   0.00000  -0.01070  -0.01063   1.89370
   A16        1.86717   0.00040   0.00000   0.00473   0.00465   1.87182
   A17        2.12746   0.00013   0.00000  -0.00088  -0.00095   2.12650
   A18        2.28850  -0.00052   0.00000  -0.00362  -0.00369   2.28481
   A19        1.86542  -0.00094   0.00000  -0.00038  -0.00056   1.86486
   A20        2.29494   0.00011   0.00000  -0.00143  -0.00137   2.29357
   A21        2.12176   0.00079   0.00000   0.00134   0.00140   2.12316
   A22        1.90843  -0.00389   0.00000  -0.00997  -0.00976   1.89867
   A23        2.18071   0.00675   0.00000   0.02140   0.02121   2.20192
   A24        2.18473  -0.00286   0.00000  -0.01072  -0.01077   2.17396
   A25        1.87597   0.00726   0.00000   0.01881   0.01834   1.89431
   A26        2.19898  -0.00422   0.00000  -0.00533  -0.00627   2.19271
   A27        2.20020  -0.00248   0.00000  -0.00790  -0.00744   2.19276
   A28        1.91882  -0.00259   0.00000  -0.00403  -0.00394   1.91489
   A29        1.89441   0.00111   0.00000  -0.00450  -0.00483   1.88958
   A30        1.88713   0.00529   0.00000   0.03715   0.03719   1.92431
   A31        1.92155   0.00014   0.00000  -0.00596  -0.00600   1.91554
   A32        1.92406   0.00228   0.00000   0.00938   0.00884   1.93290
   A33        1.91732  -0.00619   0.00000  -0.03165  -0.03142   1.88589
   A34        1.93774   0.00369   0.00000   0.01634   0.01733   1.95507
   A35        2.12901   0.00046   0.00000   0.01761   0.01713   2.14613
   A36        1.50173  -0.00505   0.00000  -0.02650  -0.02708   1.47464
   A37        2.16265  -0.00507   0.00000  -0.00962  -0.01108   2.15157
   A38        1.60022   0.00371   0.00000   0.03486   0.03562   1.63584
   A39        2.44004   0.00444   0.00000   0.01605   0.01726   2.45731
   A40        1.40069   0.01201   0.00000   0.06548   0.06553   1.46622
   A41        2.33904   0.00353   0.00000   0.02804   0.02932   2.36837
   A42        3.11532   0.00127   0.00000   0.02390   0.02267   3.13798
   A43        3.10659  -0.00004   0.00000   0.00821   0.00741   3.11400
   A44        3.11226   0.00681   0.00000   0.05723   0.05836   3.17062
   A45        3.12130   0.00115   0.00000  -0.02144  -0.02136   3.09994
    D1        1.08115  -0.00075   0.00000  -0.01621  -0.01666   1.06448
    D2       -1.00536  -0.00079   0.00000  -0.01427  -0.01440  -1.01976
    D3       -3.12351   0.00026   0.00000   0.00094   0.00080  -3.12271
    D4       -1.00656  -0.00138   0.00000  -0.02476  -0.02552  -1.03208
    D5       -3.09307  -0.00142   0.00000  -0.02283  -0.02325  -3.11632
    D6        1.07197  -0.00037   0.00000  -0.00762  -0.00805   1.06391
    D7       -3.10297  -0.00081   0.00000  -0.02620  -0.02662  -3.12959
    D8        1.09371  -0.00086   0.00000  -0.02427  -0.02436   1.06936
    D9       -1.02444   0.00020   0.00000  -0.00906  -0.00916  -1.03360
   D10        0.83477   0.00055   0.00000   0.00797   0.00713   0.84190
   D11       -1.27044  -0.00051   0.00000  -0.00319  -0.00381  -1.27425
   D12        2.92963   0.00029   0.00000   0.01109   0.01038   2.94001
   D13       -1.45233  -0.00139   0.00000   0.01027   0.01000  -1.44233
   D14        1.49776  -0.00267   0.00000   0.00498   0.00451   1.50226
   D15        0.67032   0.00174   0.00000   0.02010   0.01964   0.68997
   D16       -2.66278   0.00045   0.00000   0.01480   0.01415  -2.64863
   D17        2.72139  -0.00188   0.00000  -0.00930  -0.00939   2.71200
   D18       -0.61171  -0.00316   0.00000  -0.01460  -0.01489  -0.62659
   D19        3.02842  -0.00222   0.00000  -0.02657  -0.02656   3.00187
   D20       -0.12373  -0.00082   0.00000  -0.00659  -0.00660  -0.13033
   D21        0.05294  -0.00136   0.00000  -0.02359  -0.02347   0.02947
   D22       -3.09921   0.00004   0.00000  -0.00361  -0.00352  -3.10273
   D23       -3.05511   0.00214   0.00000   0.03314   0.03360  -3.02152
   D24        0.21612  -0.00232   0.00000  -0.01126  -0.01131   0.20480
   D25       -0.07864   0.00139   0.00000   0.02941   0.02966  -0.04898
   D26       -3.09059  -0.00306   0.00000  -0.01499  -0.01525  -3.10584
   D27       -0.00680   0.00048   0.00000   0.00769   0.00758   0.00078
   D28       -3.09802   0.00135   0.00000   0.01871   0.01872  -3.07929
   D29       -3.13649  -0.00111   0.00000  -0.01486  -0.01488   3.13181
   D30        0.05548  -0.00023   0.00000  -0.00384  -0.00374   0.05174
   D31       -0.04167   0.00066   0.00000   0.01080   0.01092  -0.03076
   D32       -3.04311   0.00106   0.00000   0.00678   0.00703  -3.03607
   D33        3.05563  -0.00013   0.00000   0.00102   0.00101   3.05664
   D34        0.05420   0.00027   0.00000  -0.00300  -0.00287   0.05133
   D35        0.07451  -0.00112   0.00000  -0.02448  -0.02485   0.04965
   D36        3.08634   0.00317   0.00000   0.02021   0.02017   3.10651
   D37        3.07554  -0.00057   0.00000  -0.01726  -0.01788   3.05766
   D38       -0.19581   0.00372   0.00000   0.02743   0.02714  -0.16867
   D39       -1.71110   0.00151   0.00000   0.04795   0.04754  -1.66355
   D40        2.46935   0.00221   0.00000   0.06045   0.06014   2.52948
   D41        0.39023   0.00599   0.00000   0.07975   0.07956   0.46979
   D42        1.59247   0.00186   0.00000   0.04263   0.04240   1.63486
   D43       -0.51028   0.00257   0.00000   0.05513   0.05499  -0.45529
   D44       -2.58939   0.00634   0.00000   0.07443   0.07441  -2.51499
   D45       -1.64882   0.00392   0.00000   0.04212   0.04202  -1.60680
   D46        1.64591  -0.00198   0.00000  -0.01225  -0.01223   1.63368
   D47        0.57739   0.00398   0.00000   0.08271   0.08122   0.65861
   D48        2.67544   0.00544   0.00000   0.10630   0.10585   2.78129
   D49       -1.48716   0.00305   0.00000   0.08426   0.08380  -1.40336
   D50       -1.92809   0.00224   0.00000   0.03595   0.03522  -1.89287
   D51       -0.21821   0.00011   0.00000   0.03938   0.03853  -0.17968
   D52        1.14153   0.00208   0.00000   0.05444   0.05357   1.19510
   D53       -1.00233   0.00305   0.00000   0.04358   0.04351  -0.95883
   D54       -0.56727  -0.00193   0.00000  -0.03899  -0.04011  -0.60738
   D55        1.39417  -0.00071   0.00000  -0.03343  -0.03409   1.36008
   D56       -0.37250   0.00283   0.00000   0.01585   0.01386  -0.35864
   D57        0.64177   0.00182   0.00000  -0.03506  -0.03731   0.60445
         Item               Value     Threshold  Converged?
 Maximum Force            0.019090     0.000015     NO 
 RMS     Force            0.004747     0.000010     NO 
 Maximum Displacement     0.349355     0.000060     NO 
 RMS     Displacement     0.097915     0.000040     NO 
 Predicted change in Energy=-9.619072D-03
 GradGradGradGradGradGradGradGradGradGradGradGradGradGradGradGradGradGrad

                          Input orientation:                          
 ---------------------------------------------------------------------
 Center     Atomic      Atomic             Coordinates (Angstroms)
 Number     Number       Type             X           Y           Z
 ---------------------------------------------------------------------
      1          6           0        2.863967    1.155056    0.373548
      2          6           0        2.827825   -0.345534    0.083249
      3          7           0        1.464456   -0.873554    0.120357
      4          6           0        0.782020   -1.243771    1.260120
      5          6           0       -0.499892   -1.507964    0.894308
      6          7           0       -0.579180   -1.295650   -0.463729
      7          6           0        0.610522   -0.876288   -0.903813
      8          6           0       -1.791677   -1.336886   -1.271185
      9          6           0       -0.614400    1.899379   -0.564355
     10          7           0        0.245931    1.646154   -1.326380
     11          7           0       -1.576113    2.150891    0.251314
     12          6           0       -2.408315    1.245662    0.673870
     13          7           0       -3.121143    0.420099    1.097068
     14          1           0        2.468068    1.362547    1.374968
     15          1           0        2.256675    1.700391   -0.365012
     16          1           0        3.900387    1.510016    0.323520
     17          1           0        3.406775   -0.912214    0.823596
     18          1           0        3.240510   -0.561343   -0.910003
     19          1           0        1.264505   -1.278297    2.229078
     20          1           0       -1.370539   -1.777819    1.479025
     21          1           0        0.860889   -0.658133   -1.934616
     22          1           0       -1.903866   -2.331643   -1.719823
     23          1           0       -1.704308   -0.582647   -2.060394
     24          1           0       -2.668366   -1.085942   -0.655162
 ---------------------------------------------------------------------
                    Distance matrix (angstroms):
                    1          2          3          4          5
     1  C    0.000000
     2  C    1.528840   0.000000
     3  N    2.477498   1.462517   0.000000
     4  C    3.297710   2.525307   1.379072   0.000000
     5  C    4.321853   3.617009   2.204572   1.359012   0.000000
     6  N    4.308394   3.579048   2.166973   2.197092   1.376817
     7  C    3.291812   2.484436   1.333468   2.201604   2.205735
     8  C    5.530818   4.914984   3.571200   3.611107   2.527318
     9  C    3.678684   4.160281   3.532652   3.893340   3.708206
    10  N    3.159913   3.552472   3.150680   3.915232   3.928888
    11  N    4.552026   5.065082   4.290627   4.254670   3.867675
    12  C    5.281606   5.504353   4.449248   4.088912   3.357548
    13  N    6.073318   6.083111   4.863664   4.246143   3.260291
    14  H    1.096645   2.171521   2.753440   3.106259   4.156880
    15  H    1.100757   2.170936   2.736492   3.672024   4.413399
    16  H    1.096661   2.156661   3.414153   4.264362   5.366233
    17  H    2.184214   1.097462   2.066069   2.681385   3.952463
    18  H    2.176078   1.097011   2.076894   3.349526   4.259371
    19  H    3.452894   2.814000   2.156502   1.082987   2.224287
    20  H    5.268290   4.650365   3.271219   2.228595   1.082933
    21  H    3.553533   2.835196   2.152583   3.248928   3.252191
    22  H    6.266698   5.439172   4.105835   4.156622   3.079492
    23  H    5.460112   5.019129   3.857638   4.200563   3.322212
    24  H    6.056981   5.594780   4.210315   3.949478   2.698376
                    6          7          8          9         10
     6  N    0.000000
     7  C    1.336012   0.000000
     8  C    1.457339   2.473393   0.000000
     9  C    3.196807   3.052866   3.515537   0.000000
    10  N    3.174774   2.583448   3.612952   1.176848   0.000000
    11  N    3.658389   3.908901   3.811700   1.285873   2.462463
    12  C    3.331386   4.013120   3.291358   2.275671   3.347598
    13  N    3.441142   4.428257   3.234671   3.351471   4.325910
    14  H    4.442132   3.695362   5.695129   3.681137   3.509360
    15  H    4.126510   3.104739   5.141533   2.884858   2.229408
    16  H    5.343973   4.245469   6.561062   4.617708   4.011952
    17  H    4.206194   3.286984   5.620709   5.099148   4.599846
    18  H    3.915151   2.648786   5.104393   4.586388   3.743517
    19  H    3.263538   3.225571   4.647098   4.629382   4.714996
    20  H    2.152447   3.227271   2.816991   4.274218   4.712416
    21  H    2.154933   1.082973   2.817260   3.254990   2.461273
    22  H    2.099011   3.017627   1.096997   4.571583   4.538644
    23  H    2.079333   2.604293   1.095153   3.096204   3.051190
    24  H    2.108393   3.294979   1.100473   3.624798   4.050679
                   11         12         13         14         15
    11  N    0.000000
    12  C    1.300212   0.000000
    13  N    2.469424   1.169946   0.000000
    14  H    4.270771   4.927911   5.674920   0.000000
    15  H    3.908078   4.800853   5.718195   1.785037   0.000000
    16  H    5.514344   6.323950   7.147600   1.782927   1.792236
    17  H    5.877014   6.204363   6.668100   2.521848   3.092123
    18  H    5.648428   6.138660   6.742566   3.085306   2.525943
    19  H    4.872370   4.720026   4.837345   3.025248   4.072627
    20  H    4.121201   3.296467   2.835728   4.960608   5.353046
    21  H    4.313686   4.595251   5.119597   4.197561   3.158245
    22  H    4.907740   4.333745   4.121737   6.506810   5.950034
    23  H    3.582270   3.363709   3.603122   5.744059   4.876061
    24  H    3.534374   2.696355   2.354458   6.041479   5.666027
                   16         17         18         19         20
    16  H    0.000000
    17  H    2.522088   0.000000
    18  H    2.499509   1.776548   0.000000
    19  H    4.284124   2.588188   3.777890   0.000000
    20  H    6.318838   4.899142   5.333765   2.784880   0.000000
    21  H    4.363324   3.762157   2.592643   4.228931   4.229174
    22  H    7.254167   6.056952   5.500398   5.171260   3.289953
    23  H    6.440100   5.877855   5.076916   5.262827   3.750644
    24  H    7.130591   6.254938   5.937589   4.880913   2.591872
                   21         22         23         24
    21  H    0.000000
    22  H    3.238926   0.000000
    23  H    2.569388   1.792986   0.000000
    24  H    3.778315   1.808241   1.776905   0.000000
 Stoichiometry    C8H11N5
 Framework group  C1[X(C8H11N5)]
 Deg. of freedom    66
 Full point group                 C1      NOp   1
 Largest Abelian subgroup         C1      NOp   1
 Largest concise Abelian subgroup C1      NOp   1
                         Standard orientation:                         
 ---------------------------------------------------------------------
 Center     Atomic      Atomic             Coordinates (Angstroms)
 Number     Number       Type             X           Y           Z
 ---------------------------------------------------------------------
      1          6           0       -2.773362    1.411468   -0.434864
      2          6           0       -2.901249   -0.072539   -0.090309
      3          7           0       -1.603355   -0.746576   -0.100313
      4          6           0       -0.963089   -1.230185   -1.221929
      5          6           0        0.281772   -1.618549   -0.839296
      6          7           0        0.381113   -1.366589    0.510620
      7          6           0       -0.756732   -0.804627    0.928275
      8          6           0        1.580393   -1.509774    1.326135
      9          6           0        0.763554    1.807225    0.495900
     10          7           0       -0.120664    1.677019    1.261522
     11          7           0        1.748468    1.922752   -0.322675
     12          6           0        2.478040    0.917614   -0.707348
     13          7           0        3.097617    0.004564   -1.096242
     14          1           0       -2.355339    1.537952   -1.440791
     15          1           0       -2.111744    1.914228    0.287050
     16          1           0       -3.765102    1.878533   -0.403777
     17          1           0       -3.537013   -0.599647   -0.813071
     18          1           0       -3.336849   -0.205761    0.907659
     19          1           0       -1.444627   -1.247490   -2.191817
     20          1           0        1.118998   -2.002611   -1.408763
     21          1           0       -0.983832   -0.523011    1.949034
     22          1           0        1.582834   -2.493756    1.811085
     23          1           0        1.574107   -0.722154    2.087039
     24          1           0        2.480346   -1.378272    0.706594
 ---------------------------------------------------------------------
 Rotational constants (GHZ):           1.1428395           0.6840355           0.5556518
 Standard basis: def2SVP (5D, 7F)
 There are   250 symmetry adapted cartesian basis functions of A   symmetry.
 There are   237 symmetry adapted basis functions of A   symmetry.
   237 basis functions,   402 primitive gaussians,   250 cartesian basis functions
    47 alpha electrons       47 beta electrons
       nuclear repulsion energy       779.2192889846 Hartrees.
 NAtoms=   24 NActive=   24 NUniq=   24 SFac= 1.00D+00 NAtFMM=   60 NAOKFM=F Big=F
 Integral buffers will be    131072 words long.
 Raffenetti 2 integral format.
 Two-electron integral symmetry is turned on.
 Nuclear repulsion after empirical dispersion term =      779.2003312405 Hartrees.
 Standard density basis: W06 (5D, 7F)
   758 Density fitting functions
 There are   758 symmetry adapted density basis functions of A   symmetry.
 One-electron integrals computed using PRISM.
   1 Symmetry operations used in ECPInt.
 ECPInt:  NShTT=    6216 NPrTT=   22568 LenC2=    6090 LenP2D=   16704.
 LDataN:  DoStor=T MaxTD1= 4 Len=   56
 NBasis=   237 RedAO= T EigKep=  1.03D-03  NBF=   237
 NBsUse=   237 1.00D-06 EigRej= -1.00D+00 NBFU=   237
 Initial guess from the checkpoint file:  "c1c2im_ncn2.chk"
 B after Tr=     0.000000   -0.000000   -0.000000
         Rot=    0.999338    0.004095   -0.001522    0.036113 Ang=   4.17 deg.
 ExpMin= 1.22D-01 ExpMax= 1.71D+03 ExpMxC= 2.58D+02 IAcc=3 IRadAn=         5 AccDes= 0.00D+00
 Harris functional with IExCor= 4639 and IRadAn=       5 diagonalized for initial guess.
 HarFok:  IExCor= 4639 AccDes= 0.00D+00 IRadAn=         5 IDoV= 1 UseB2=F ITyADJ=14
 ICtDFT=  3500011 ScaDFX=  1.000000  1.000000  1.000000  1.000000
 FoFCou: FMM=F IPFlag=           0 FMFlag=      100000 FMFlg1=           0
         NFxFlg=           0 DoJE=T BraDBF=F KetDBF=T FulRan=T
         wScrn=  0.000000 ICntrl=       500 IOpCl=  0 I1Cent=   200000004 NGrid=           0
         NMat0=    1 NMatS0=      1 NMatT0=    0 NMatD0=    1 NMtDS0=    0 NMtDT0=    0
 Petite list used in FoFCou.
 Requested convergence on RMS density matrix=1.00D-08 within 128 cycles.
 Requested convergence on MAX density matrix=1.00D-06.
 Requested convergence on             energy=1.00D-06.
 No special actions if energy rises.
 Integral accuracy reduced to 1.0D-05 until final iterations.
 Initial convergence to 1.0D-05 achieved.  Increase integral accuracy.
 SCF Done:  E(RwB97XD) =  -584.550003607     A.U. after   14 cycles
            NFock= 14  Conv=0.49D-08     -V/T= 2.0104
   1 Symmetry operations used in ECPInt.
 ECPInt:  NShTT=    6216 NPrTT=   22568 LenC2=    6090 LenP2D=   16704.
 LDataN:  DoStor=T MaxTD1= 5 Len=  102
 Calling FoFJK, ICntrl=      2127 FMM=F ISym2X=0 I1Cent= 0 IOpClX= 0 NMat=1 NMatS=1 NMatT=0.
 ***** Axes restored to original set *****
 -------------------------------------------------------------------
 Center     Atomic                   Forces (Hartrees/Bohr)
 Number     Number              X              Y              Z
 -------------------------------------------------------------------
      1        6           0.001189814   -0.003756498   -0.003066725
      2        6          -0.000878324    0.006745888    0.001461101
      3        7          -0.001150958    0.000418862   -0.003709208
      4        6          -0.000851967    0.000007936   -0.000455800
      5        6           0.000587541    0.000848482    0.000029010
      6        7          -0.000260434    0.006290546   -0.002157816
      7        6           0.000604261   -0.011672945    0.005688356
      8        6          -0.001013911   -0.003939437   -0.003724404
      9        6          -0.001749918   -0.006764179   -0.006239030
     10        7           0.000317058    0.006660632   -0.001593368
     11        7          -0.002943114    0.010247964    0.003920317
     12        6           0.005727580   -0.002156637    0.002020875
     13        7          -0.004501742   -0.003110497    0.000654854
     14        1          -0.000602579    0.001022757    0.001749423
     15        1           0.000437531   -0.001358292    0.001692604
     16        1           0.002037768   -0.000008479    0.000955513
     17        1           0.001271031   -0.001543777   -0.000383338
     18        1           0.000292124   -0.001170342   -0.000697104
     19        1           0.000535086    0.000165706    0.001810112
     20        1          -0.002070005    0.000246748    0.001178492
     21        1          -0.000474381    0.002924206   -0.000015548
     22        1          -0.000919990   -0.001135142   -0.000500663
     23        1           0.000447569    0.001249225   -0.000745876
     24        1           0.003969961   -0.000212726    0.002128223
 -------------------------------------------------------------------
 Cartesian Forces:  Max     0.011672945 RMS     0.003192147

 GradGradGradGradGradGradGradGradGradGradGradGradGradGradGradGradGradGrad
 Berny optimization.
 Using GEDIIS/GDIIS optimizer.
 FormGI is forming the generalized inverse of G from B-inverse, IUseBI=4.
 Internal  Forces:  Max     0.007945100 RMS     0.001842232
 Search for a local minimum.
 Step number   2 out of a maximum of  138
 All quantities printed in internal units (Hartrees-Bohrs-Radians)
 Mixed Optimization -- RFO/linear search
 Update second derivatives using D2CorX and points    1    2
 DE= -6.27D-03 DEPred=-9.62D-03 R= 6.51D-01
 TightC=F SS=  1.41D+00  RLast= 4.02D-01 DXNew= 5.0454D-01 1.2061D+00
 Trust test= 6.51D-01 RLast= 4.02D-01 DXMaxT set to 5.05D-01
 ITU=  1  0
 Use linear search instead of GDIIS.
     Eigenvalues ---    0.00321   0.00444   0.00557   0.00915   0.01406
     Eigenvalues ---    0.01743   0.01797   0.02026   0.02247   0.02335
     Eigenvalues ---    0.02474   0.02524   0.02858   0.03122   0.03623
     Eigenvalues ---    0.03804   0.04072   0.04565   0.05200   0.05359
     Eigenvalues ---    0.05985   0.06348   0.07123   0.07503   0.08416
     Eigenvalues ---    0.09131   0.09436   0.09999   0.10979   0.11129
     Eigenvalues ---    0.11305   0.12363   0.13897   0.14408   0.15903
     Eigenvalues ---    0.15960   0.15997   0.19470   0.20028   0.20807
     Eigenvalues ---    0.22467   0.22859   0.23343   0.29255   0.33470
     Eigenvalues ---    0.34182   0.34392   0.34508   0.34722   0.34759
     Eigenvalues ---    0.34871   0.34929   0.35085   0.36110   0.36379
     Eigenvalues ---    0.36512   0.37420   0.44241   0.45282   0.50971
     Eigenvalues ---    0.54790   0.55487   0.66861   0.72089   1.17193
     Eigenvalues ---    1.22187
 RFO step:  Lambda=-5.65295026D-03 EMin= 3.20536330D-03
 Quartic linear search produced a step of  0.12273.
 Iteration  1 RMS(Cart)=  0.05452626 RMS(Int)=  0.00195585
 Iteration  2 RMS(Cart)=  0.00318595 RMS(Int)=  0.00056429
 Iteration  3 RMS(Cart)=  0.00000752 RMS(Int)=  0.00056427
 Iteration  4 RMS(Cart)=  0.00000001 RMS(Int)=  0.00056427
 Variable       Old X    -DE/DX   Delta X   Delta X   Delta X     New X
                                 (Linear)    (Quad)   (Total)
    R1        2.88909  -0.00264   0.00087  -0.00762  -0.00714   2.88195
    R2        2.07236   0.00201   0.00174   0.01086   0.01260   2.08496
    R3        2.08013   0.00111   0.00215   0.00908   0.01126   2.09139
    R4        2.07239   0.00188   0.00180   0.01059   0.01239   2.08478
    R5        2.76376   0.00193   0.00103   0.00655   0.00714   2.77090
    R6        2.07390   0.00121   0.00085   0.00608   0.00693   2.08083
    R7        2.07305   0.00097   0.00080   0.00517   0.00596   2.07901
    R8        2.60607   0.00157   0.00108   0.00606   0.00699   2.61306
    R9        2.51989  -0.00243  -0.00072  -0.00653  -0.00728   2.51260
   R10        2.56816   0.00082   0.00073   0.00336   0.00377   2.57193
   R11        2.04655   0.00185   0.00172   0.01006   0.01178   2.05833
   R12        2.60181   0.00108   0.00129   0.00579   0.00704   2.60884
   R13        2.04645   0.00224   0.00153   0.01071   0.01224   2.05868
   R14        2.52470  -0.00315  -0.00012  -0.00656  -0.00704   2.51766
   R15        2.75397  -0.00053   0.00105  -0.00054   0.00025   2.75422
   R16        2.04652   0.00128   0.00205   0.01164   0.01329   2.05981
   R17        2.07302   0.00133   0.00136   0.00776   0.00912   2.08215
   R18        2.06954   0.00143   0.00127   0.00783   0.00910   2.07864
   R19        2.07959  -0.00114   0.00214   0.00158   0.00323   2.08283
   R20        2.22392   0.00146   0.00096   0.00394   0.00542   2.22934
   R21        2.42995   0.00551   0.00206   0.01378   0.01636   2.44630
   R22        4.21297   0.00274   0.00894   0.11291   0.12216   4.33513
   R23        4.65113   0.00288   0.02782   0.16726   0.19524   4.84637
   R24        2.45704   0.00347   0.00156   0.00992   0.01215   2.46919
   R25        2.21088   0.00489   0.00129   0.00783   0.00979   2.22067
   R26        4.44928   0.00096   0.01311   0.07004   0.08305   4.53233
    A1        1.92897   0.00043   0.00042   0.00280   0.00296   1.93193
    A2        1.92391  -0.00031   0.00143   0.00647   0.00795   1.93186
    A3        1.90855  -0.00024  -0.00011  -0.00302  -0.00296   1.90560
    A4        1.89630  -0.00035  -0.00007  -0.00664  -0.00679   1.88952
    A5        1.89821  -0.00040  -0.00114  -0.00915  -0.01028   1.88793
    A6        1.90756   0.00088  -0.00055   0.00944   0.00889   1.91645
    A7        1.95151   0.00180   0.00407   0.01938   0.02203   1.97354
    A8        1.94577   0.00005   0.00028   0.00310   0.00364   1.94941
    A9        1.93491   0.00032   0.00019   0.00823   0.00886   1.94377
   A10        1.86318  -0.00067  -0.00252  -0.00754  -0.00973   1.85345
   A11        1.87825  -0.00110  -0.00051  -0.00880  -0.00920   1.86906
   A12        1.88679  -0.00054  -0.00172  -0.01641  -0.01841   1.86838
   A13        2.18854   0.00073   0.00017   0.00082   0.00074   2.18928
   A14        2.18735   0.00017   0.00106   0.00409   0.00496   2.19231
   A15        1.89370  -0.00091  -0.00130  -0.00617  -0.00709   1.88661
   A16        1.87182  -0.00057   0.00057   0.00045   0.00067   1.87249
   A17        2.12650   0.00054  -0.00012   0.00179   0.00163   2.12813
   A18        2.28481   0.00003  -0.00045  -0.00250  -0.00300   2.28181
   A19        1.86486  -0.00043  -0.00007  -0.00007  -0.00027   1.86459
   A20        2.29357   0.00040  -0.00017   0.00039   0.00024   2.29380
   A21        2.12316   0.00002   0.00017  -0.00106  -0.00087   2.12229
   A22        1.89867  -0.00056  -0.00120  -0.00592  -0.00674   1.89193
   A23        2.20192  -0.00109   0.00260  -0.00279  -0.00035   2.20157
   A24        2.17396   0.00167  -0.00132   0.00902   0.00747   2.18143
   A25        1.89431   0.00247   0.00225   0.01251   0.01414   1.90845
   A26        2.19271  -0.00047  -0.00077  -0.00341  -0.00523   2.18748
   A27        2.19276  -0.00187  -0.00091  -0.00285  -0.00551   2.18725
   A28        1.91489   0.00300  -0.00048   0.02266   0.02203   1.93691
   A29        1.88958   0.00059  -0.00059   0.00383   0.00347   1.89305
   A30        1.92431  -0.00685   0.00456  -0.05551  -0.05205   1.87226
   A31        1.91554  -0.00027  -0.00074   0.01118   0.01014   1.92569
   A32        1.93290   0.00079   0.00108   0.00926   0.01120   1.94410
   A33        1.88589   0.00271  -0.00386   0.00835   0.00402   1.88991
   A34        1.95507  -0.00033   0.00213   0.01148   0.01310   1.96817
   A35        2.14613  -0.00143   0.00210  -0.02807  -0.02589   2.12024
   A36        1.47464  -0.00141  -0.00332  -0.03217  -0.03574   1.43890
   A37        2.15157  -0.00795  -0.00136  -0.04157  -0.04070   2.11087
   A38        1.63584   0.00234   0.00437   0.01993   0.02523   1.66106
   A39        2.45731   0.00086   0.00212   0.01508   0.01771   2.47502
   A40        1.46622   0.00233   0.00804   0.03788   0.04517   1.51139
   A41        2.36837   0.00240   0.00360   0.01083   0.01286   2.38123
   A42        3.13798  -0.00232   0.00278  -0.07936  -0.07648   3.06150
   A43        3.11400   0.00298   0.00091   0.07214   0.07498   3.18897
   A44        3.17062  -0.00634   0.00716  -0.11076  -0.10448   3.06615
   A45        3.09994   0.00256  -0.00262   0.09183   0.08910   3.18904
    D1        1.06448   0.00002  -0.00205  -0.00326  -0.00537   1.05911
    D2       -1.01976  -0.00039  -0.00177  -0.00890  -0.01061  -1.03037
    D3       -3.12271   0.00005   0.00010   0.00422   0.00427  -3.11844
    D4       -1.03208   0.00038  -0.00313  -0.00097  -0.00398  -1.03606
    D5       -3.11632  -0.00003  -0.00285  -0.00661  -0.00923  -3.12554
    D6        1.06391   0.00041  -0.00099   0.00651   0.00566   1.06957
    D7       -3.12959  -0.00036  -0.00327  -0.01472  -0.01807   3.13552
    D8        1.06936  -0.00077  -0.00299  -0.02037  -0.02332   1.04604
    D9       -1.03360  -0.00033  -0.00112  -0.00724  -0.00843  -1.04203
[...]
 -0.00003916,-0.00008368,-0.00015884,-0.00005415,0.00008426,0.00047583,
 0.00016754,0.00030666,0.00007064,-0.00000249,0.00003432,0.00062281,-0.
 00016015,-0.00064077,-0.00079929,0.00020501,-0.00027486,-0.00037896,-0
 .00004833,0.00038583,0.00021151,0.00023912,-0.00012239,-0.00012908,-0.
 00011559,0.00007080,-0.00582906,-0.00172656,-0.00147855,-0.01249014,-0
 .00735613,0.00444824,0.31648005,-0.07893912,-0.07336245,0.00742312,-0.
 02915409,-0.00624721,0.00445923,-0.00258737,-0.00721719,-0.00293753,0.
 00060550,-0.00002258,-0.00090445,-0.00052609,0.00000427,-0.00047968,-0
 .00132740,-0.00009009,0.00048888,0.00129064,-0.00083203,0.00119126,0.0
 0009164,0.00013233,0.00023979,-0.00049839,0.00010509,0.00053242,0.0007
 9948,0.00004843,0.00031162,0.00039500,0.00014074,-0.00038136,-0.000315
 45,-0.00041039,0.00019890,0.00007801,0.00028467,-0.00005917,0.00450726
 ,0.00046933,-0.00000310,0.01612792,0.00717869,-0.00423532,0.08945530,0
 .07820104,0.02480855,0.00788209,-0.04876418,-0.00883002,-0.00139886,-0
 .00095151,-0.00087632,-0.00271864,-0.00006893,0.00024233,-0.00003721,-
 0.00030571,-0.00049579,0.00007895,-0.00025401,-0.00036980,-0.00008406,
 0.00045123,0.00050776,0.00007355,0.00039640,-0.00000004,0.00000102,0.0
 0004578,0.00036083,-0.00010229,-0.00047012,-0.00056999,0.00018526,-0.0
 0021329,-0.00020542,-0.00000547,0.00028952,0.00005729,0.00010771,-0.00
 006325,-0.00003877,-0.00004541,0.00004945,0.02802608,0.01041935,-0.000
 44746,-0.01587778,-0.00842955,0.00299293,-0.02657293,-0.00614400,0.046
 76560,0.00344611,-0.00151997,0.00243293,-0.12773175,0.08547000,-0.0816
 1117,-0.02941429,0.01383363,-0.02449135,0.00215332,0.00034967,-0.00159
 487,-0.00063907,-0.00007669,-0.00110508,-0.00235598,-0.00108671,-0.000
 01870,-0.00141474,0.00067164,0.00450798,0.00014805,-0.00040687,0.00033
 791,0.00000885,-0.00000372,0.00000185,0.00014387,0.00027792,0.00003844
 ,0.00005629,0.00004928,-0.00006389,-0.00007730,-0.00015313,0.00007273,
 -0.00000051,0.00012235,0.00002217,-0.00006146,0.00014356,-0.00032163,0
 .00071563,-0.00082809,-0.00060610,0.00023075,0.00022343,0.00013532,0.1
 4797216,0.01710504,-0.01795805,0.01913828,0.09228036,-0.14591842,0.099
 39267,-0.01245046,0.00772265,-0.01039037,0.00024067,0.00044196,-0.0003
 1467,0.00015499,0.00009559,-0.00022969,-0.00090187,-0.00040692,-0.0006
 6849,-0.00167705,0.00009741,0.00101550,0.00007028,-0.00021040,0.000108
 60,-0.00043884,0.00010387,0.00040286,0.00055390,0.00021998,0.00010858,
 0.00039306,0.00011300,-0.00037990,-0.00026800,-0.00037038,0.00020558,0
 .00009336,0.00023342,-0.00007579,0.00019176,0.00144181,-0.00035828,-0.
 00176535,-0.00533405,-0.00310640,-0.00043879,0.00069863,0.00012103,-0.
 09066518,0.15670007,0.00695376,-0.00731142,0.00769079,-0.08990681,0.09
 595132,-0.14877367,0.00355673,-0.00236966,0.00195177,0.00061147,-0.000
 32231,0.00094108,-0.00005425,-0.00035847,0.00029860,0.00059371,-0.0000
 6186,-0.00009881,-0.00055235,0.00020212,-0.00005000,-0.00001595,0.0001
 6762,0.00003590,0.00010762,-0.00002715,-0.00006100,-0.00003801,0.00011
 083,0.00007594,-0.00009855,0.00000340,0.00006362,0.00002150,0.00002474
 ,-0.00001462,-0.00004268,0.00000106,0.00000533,0.00050120,0.00039133,0
 .00082962,-0.00027982,-0.00239239,0.00022293,-0.00013281,0.00075786,0.
 00027177,0.09577055,-0.10184383,0.15063467,0.00146499,0.00005007,-0.00
 274530,-0.07376715,0.01025983,0.06879413,-0.01947745,-0.00086268,0.036
 58706,-0.00338952,0.00016628,-0.00350812,-0.00121657,-0.00066642,0.001
 04687,-0.00042192,0.00003275,0.00043969,0.00180329,-0.00048585,0.00222
 886,0.00015851,-0.00005975,0.00001769,-0.00020497,0.00002848,0.0001961
 5,0.00027408,0.00000132,-0.00008440,0.00028968,0.00009561,-0.00024267,
 -0.00019419,-0.00026468,0.00014751,0.00002300,0.00020431,-0.00006228,0
 .00093762,-0.00097722,-0.00002610,-0.00009508,-0.00006027,0.00058107,0
 .00030311,-0.00011651,-0.00028778,0.00733920,-0.00273451,-0.01694694,0
 .08705419,0.00943533,-0.00367047,-0.03111149,0.01115790,-0.05106725,-0
 .03276916,-0.00649606,-0.00132241,0.01395329,-0.00218780,0.00036209,-0
 .00096543,-0.00047985,-0.00004646,0.00073143,0.00022539,-0.00009848,-0
 .00000685,0.00001330,0.00043738,0.00022437,0.00006677,-0.00002367,-0.0
 0001113,0.00016543,-0.00005878,-0.00017717,-0.00020123,0.00013374,0.00
 017119,-0.00017365,0.00004247,0.00019126,0.00001845,0.00002366,-0.0000
 3380,-0.00005044,0.00000787,0.00002660,-0.00055296,-0.00614606,-0.0013
 1797,0.00033090,0.00115180,0.00013611,-0.00033859,0.00109917,0.0003124
 1,-0.00653953,0.00236212,0.01664441,-0.00454211,0.05667245,0.00125502,
 -0.00111892,-0.00559074,0.08167481,-0.02820631,-0.30108071,-0.00131721
 ,0.00041483,0.00046395,-0.00033734,-0.00024395,0.00090555,-0.00021592,
 -0.00001216,0.00008529,0.00015204,0.00036695,0.00023605,-0.00151446,-0
 .00041339,0.00113879,-0.00001808,-0.00004571,-0.00003097,-0.00001319,0
 .00000232,0.00000057,0.00006459,0.00003947,0.00005603,-0.00001027,0.00
 000610,0.00001980,-0.00000952,-0.00000751,0.00000019,0.00002372,-0.000
 00518,0.00001008,-0.00031955,-0.00145447,0.00110108,-0.00017467,0.0000
 4865,0.00062270,-0.00016102,-0.00029939,0.00019935,0.00602065,-0.00308
 732,-0.01420803,-0.08532233,0.03435077,0.31579481,-0.00019440,-0.00006
 805,0.00000241,0.00159336,0.00028200,-0.00009261,0.01157526,0.00140260
 ,0.02068563,-0.11966223,-0.00990414,-0.13030966,0.00306030,0.00228092,
 -0.02066964,-0.00469411,-0.00219236,-0.00235172,-0.00378162,-0.0020766
 5,0.00320173,0.00081994,0.00007522,-0.00074840,0.00007911,-0.00003078,
 -0.00011270,-0.00005170,-0.00005214,0.00003285,-0.00003418,-0.00001881
 ,0.00008107,0.00001633,0.00000633,-0.00004539,0.00002716,0.00004988,0.
 00016576,0.00007072,-0.00014422,0.00009990,0.00008325,0.00004035,-0.00
 003419,-0.00003257,0.00000231,0.00003509,-0.00026971,0.00035227,-0.000
 22134,-0.00007190,0.00014410,-0.00016045,0.11030611,-0.00003734,0.0000
 4446,0.00037503,0.00069921,-0.00078658,-0.00036063,0.00512679,-0.00226
 875,0.00651890,-0.01097439,-0.02844621,-0.00436982,0.00017949,0.002132
 74,-0.00522502,-0.00248844,0.00482527,0.00007332,-0.00199709,0.0024718
 5,0.00115381,0.00004007,0.00141152,-0.00026900,-0.00002606,-0.00001336
 ,0.00011745,-0.00001616,-0.00005761,-0.00005720,-0.00010823,-0.0000666
 1,-0.00004626,0.00019333,0.00012023,-0.00004506,-0.00002396,-0.0002047
 9,-0.00003603,-0.00023826,-0.00041625,-0.00009404,0.00004186,-0.000022
 99,-0.00003071,0.00007050,-0.00004336,-0.00023141,0.00018471,0.0000316
 8,0.00018056,0.00003589,-0.00008006,-0.00008470,0.00942107,0.02296551,
 0.00012273,0.00008921,0.00001440,-0.00129068,-0.00064879,0.00045291,-0
 .01198389,-0.00138871,-0.01666212,-0.12277574,-0.00198867,-0.31017657,
 0.00189252,0.00050519,0.00298117,0.00027393,0.00025519,0.00189150,0.00
 408160,0.00156880,-0.00130297,-0.00011319,0.00007516,0.00023303,-0.000
 05150,0.00000853,0.00000530,0.00005259,0.00000188,0.00004990,0.0000206
 2,-0.00000513,0.00000259,0.00002824,0.00002660,-0.00002393,0.00007086,
 -0.00008375,-0.00002085,0.00007752,0.00017808,0.00006208,-0.00004569,-
 0.00004840,-0.00001512,-0.00004086,0.00003166,0.00008122,0.00056447,0.
 00002352,-0.00001736,0.00008535,-0.00011012,0.00018549,0.12985427,0.00
 196559,0.32254543,-0.00000250,0.00000311,0.00004171,0.00006875,-0.0000
 4390,0.00071650,-0.00273291,-0.00133204,-0.00211570,-0.00447816,-0.001
 99280,0.01417157,-0.27378051,-0.05907750,0.14352929,0.00924989,0.00299
 277,-0.00660317,0.00055179,-0.00000526,-0.00299366,0.00119502,0.000027
 03,0.00039003,0.00143363,-0.00029208,-0.00113761,-0.00080170,0.0004711
 4,0.00048725,-0.00161125,-0.00116353,0.00127857,0.00038686,0.00151216,
 -0.00054649,-0.00174785,0.00049652,0.00016300,0.00000813,-0.00000166,-
 0.00002493,0.00004752,-0.00001566,0.00001447,0.00001537,0.00000647,-0.
 00001438,0.00005726,0.00003827,-0.00001103,-0.00020173,-0.00008303,-0.
 00001160,0.00042226,0.00036383,-0.00020691,0.27148329,0.00025528,0.000
 01329,-0.00009885,-0.00055202,0.00119756,0.00030546,-0.00211411,0.0049
 5438,-0.00043163,-0.00198656,0.00131221,0.00360807,-0.05295315,-0.0397
 4863,0.03225784,-0.00169314,-0.00208552,0.00097018,0.00028352,0.003443
 97,0.00066032,-0.00004164,-0.00165095,-0.00032332,-0.00158134,0.000259
 39,0.00156138,0.00089962,-0.00034501,-0.00072839,0.00190097,0.00116302
 ,-0.00153754,-0.00131591,-0.00235198,0.00119010,0.00067093,-0.00004902
 ,-0.00075882,-0.00002918,-0.00003689,0.00001233,-0.00008174,-0.0000226
 1,-0.00002786,0.00001997,0.00003013,0.00004401,-0.00009546,-0.00008105
 ,0.00009262,-0.00020828,-0.00009709,-0.00007512,0.00074234,-0.00297720
 ,-0.00034941,0.05800174,0.03532200,-0.00005433,0.00001908,0.00001111,0
 .00030967,0.00011428,0.00095370,-0.00432107,-0.00131985,0.00053784,-0.
 00732658,-0.00239821,0.01251662,0.13285646,0.03410734,-0.14735922,0.02
 647257,0.00616480,-0.01339191,-0.00334984,0.00020512,-0.00536931,0.001
 34978,-0.00032655,0.00139772,-0.00014654,0.00011409,0.00010711,0.00005
 783,-0.00003794,0.00001293,0.00004432,-0.00003734,0.00000010,0.0001180
 3,0.00005228,-0.00010905,0.00029957,-0.00046882,-0.00080845,0.00001569
 ,-0.00000129,-0.00000497,-0.00000860,-0.00000193,-0.00001758,-0.000012
 08,-0.00003270,-0.00001601,0.00001812,0.00001405,-0.00001043,-0.000300
 75,-0.00011927,0.00004994,0.00056550,0.00002934,-0.00013235,-0.1467716
 6,-0.03670309,0.15176713,-0.00014311,-0.00003449,0.00020636,0.00207075
 ,0.00115628,-0.00102722,0.00942362,0.00583487,-0.02143880,-0.00282651,
 -0.00142858,-0.00292540,-0.00528278,-0.00168279,-0.00086778,-0.0003024
 2,-0.00546654,0.02820655,-0.07571590,-0.02452927,0.06525925,0.00181344
 ,0.00038693,0.00145813,-0.00044976,0.00010771,0.00027666,-0.00028279,0
 .00017413,-0.00024867,0.00033323,0.00012217,-0.00028853,-0.00010949,-0
 .00025319,0.00018496,0.00002238,0.00013416,-0.00013313,0.00002283,0.00
 008309,0.00007302,0.00009698,-0.00002526,-0.00004357,-0.00003182,-0.00
 002593,-0.00002693,-0.00013216,-0.00003545,0.00017081,-0.00053417,0.00
 010452,0.00037452,0.00099065,-0.00027172,-0.00064167,0.00061245,-0.000
 32505,0.00098975,0.07112186,-0.00027306,0.00007855,-0.00023158,0.00105
 294,-0.00202394,-0.00023141,0.00207235,0.00233050,-0.00502698,-0.00236
 789,0.00243422,-0.00003515,-0.00108389,0.00284199,0.00085113,0.0007443
 4,0.00008414,0.00510034,-0.02673109,-0.04609677,0.07878860,0.00084642,
 -0.00193826,-0.00097435,0.00053422,-0.00022625,-0.00013786,0.00100826,
 -0.00379248,0.00037083,-0.00107339,-0.00032451,0.00087514,0.00050214,0
 .00089820,-0.00058687,-0.00024819,-0.00051829,0.00015728,0.00002561,-0
 .00009775,0.00003089,-0.00010487,-0.00011720,-0.00015946,0.00002079,-0
 .00010050,-0.00002386,0.00009843,0.00006876,0.00016834,0.00012285,0.00
 032828,-0.00017461,-0.00019107,0.00150000,-0.00008278,0.00000039,0.001
 37584,0.00029931,0.02556796,0.04321836,-0.00001720,-0.00007381,-0.0000
 3551,0.00088387,-0.00018908,0.00046844,0.00769650,0.00423344,-0.012975
 92,-0.00423303,-0.00034018,0.00064201,0.00041260,0.00071497,0.00265044
 ,-0.00134895,0.00012403,-0.00000953,0.06598595,0.07335286,-0.34290572,
 0.00030657,-0.00079442,0.00037199,0.00015122,0.00009932,-0.00016665,-0
 .00022612,0.00150931,-0.00036825,-0.00024733,0.00003703,0.00022781,0.0
 0002545,-0.00011180,0.00000206,-0.00011986,0.00004605,0.00000328,0.000
 01362,0.00004424,0.00002977,-0.00006013,-0.00007196,-0.00004138,0.0000
 4722,-0.00000427,0.00002903,0.00005388,0.00002154,0.00019953,-0.000541
 85,-0.00012204,0.00002920,0.00030881,0.00046171,-0.00019489,0.00003542
 ,0.00034005,0.00019644,-0.06898446,-0.07932580,0.35164170,0.00002706,0
 .00003926,0.00003563,0.00007173,0.00050122,-0.00009852,-0.00130559,0.0
 0077419,-0.00187002,-0.00173308,-0.00014371,0.00013623,0.00019411,-0.0
 0091772,0.00243216,-0.01280638,-0.02947110,-0.01548830,0.00257970,-0.0
 0028288,-0.00182209,-0.04859428,-0.01410559,-0.00332291,-0.00079492,0.
 00003041,0.00044565,0.00054122,-0.00026438,-0.00014527,0.00070014,0.00
 016632,-0.00057978,-0.00088971,-0.00082948,0.00092134,0.00031583,0.001
 00751,0.00064923,0.00000790,0.00001050,0.00000697,-0.00002530,0.000001
 73,-0.00002300,-0.00001109,-0.00001947,-0.00000021,-0.00015020,-0.0000
 8411,0.00002066,-0.00004696,-0.00002487,0.00001001,-0.00011821,0.00020
 470,0.00003722,0.00001154,-0.00003289,-0.00004611,0.00001034,-0.000442
 46,-0.00009700,0.05548835,-0.00004159,-0.00000280,0.00001184,0.0000531
 7,-0.00004471,-0.00004501,0.00005355,0.00011110,-0.00028195,-0.0004312
 9,-0.00018222,-0.00000877,0.00012809,-0.00011051,0.00084228,-0.0021764
 6,0.00564174,0.00024350,0.00051877,0.00029088,-0.00045443,-0.02034189,
 -0.30070227,-0.08576649,-0.00007207,0.00010204,0.00013679,-0.00015215,
 -0.00010606,-0.00010855,-0.00001858,-0.00001778,0.00003312,0.00019780,
 0.00023381,-0.00018786,-0.00004542,-0.00024225,-0.00019157,0.00000735,
 0.00000735,0.00000607,0.00003735,0.00000482,0.00000892,-0.00001232,-0.
 00000365,-0.00000411,-0.00000453,0.00000082,0.00000080,-0.00000382,-0.
 00000713,0.00000566,-0.00000009,-0.00004329,0.00001646,-0.00002179,-0.
 00012193,-0.00001160,0.00000095,-0.00028023,-0.00013221,0.02412432,0.3
 1303208,-0.00005069,0.00004164,0.00004081,0.00015518,0.00018480,-0.000
 08627,-0.00096435,-0.00008329,-0.00152253,-0.00101238,0.00036894,0.000
 22548,-0.00063336,-0.00100484,0.00103895,-0.00810260,-0.01750710,-0.00
 980005,0.00293541,0.00069588,-0.00041480,-0.00533295,-0.08261994,-0.07
 808377,0.00018125,-0.00009908,-0.00014376,0.00012399,-0.00005804,0.000
 22909,-0.00014553,-0.00008261,0.00022456,0.00040932,0.00040121,-0.0006
 8529,-0.00002160,-0.00055062,-0.00018047,0.00000943,0.00000151,-0.0000
 0451,-0.00001320,0.00000900,-0.00001291,-0.00001288,-0.00003563,-0.000
 00830,-0.00009653,-0.00004715,0.00002615,-0.00003236,-0.00000315,0.000
 00168,-0.00011648,0.00015699,0.00000804,-0.00000514,-0.00036282,-0.000
 10131,0.00000572,-0.00003215,0.00000660,0.01497396,0.09381358,0.080836
 73,-0.00008641,-0.00001448,0.00002042,0.00023258,-0.00014883,-0.000007
 91,-0.00022047,0.00042559,-0.00110038,-0.00089428,-0.00048545,-0.00109
 602,-0.00348163,0.00060628,0.00133459,-0.00342191,0.01877925,-0.031245
 38,0.00202814,0.00136689,-0.00124652,-0.05169983,-0.02234769,0.0281023
 0,0.00099674,-0.00009445,-0.00067659,-0.00013078,0.00052703,0.00070057
 ,-0.00041236,0.00027971,0.00038092,0.00011111,0.00009414,-0.00012975,-
 0.00019038,0.00022720,0.00014258,0.00000576,0.00001821,0.00001476,-0.0
 0002574,0.00000419,-0.00001894,-0.00000864,-0.00003139,0.00000023,0.00
 001642,-0.00000246,0.00000234,-0.00003683,-0.00000216,0.00000630,-0.00
 023241,-0.00033369,0.00001327,-0.00014629,0.00003923,-0.00016645,-0.00
 058917,-0.00013564,0.00000590,-0.00026215,0.00009567,0.00189959,0.0570
 3827,0.00000419,0.00001736,-0.00001985,0.00007458,0.00002823,0.0000375
 9,0.00017882,0.00003972,0.00020901,0.00001598,0.00013000,-0.00065796,-
 0.00127717,-0.00003433,-0.00093222,0.00042654,0.00413535,-0.00654351,-
 0.00076794,0.00070181,-0.00027211,-0.01585326,-0.16999968,0.14429041,0
 .00123753,-0.00036751,-0.00128777,0.00000315,0.00052617,0.00095825,-0.
 00087226,-0.00035644,0.00070263,0.00041545,0.00064309,-0.00034332,-0.0
 0013444,-0.00044127,0.00015145,-0.00000069,-0.00000528,-0.00000211,-0.
 00007225,0.00000365,-0.00001735,0.00000992,-0.00001859,0.00000315,0.00
 000145,-0.00001690,-0.00000534,-0.00000068,0.00000194,-0.00000704,-0.0
 0008120,-0.00007198,-0.00002713,0.00000313,0.00003011,0.00002968,0.000
 25409,0.00019858,0.00012571,-0.00260580,-0.01350661,0.02209637,0.01896
 425,0.17153218,-0.00002892,0.00001933,0.00000169,0.00013648,0.00002413
 ,0.00000573,0.00003375,-0.00033840,-0.00028509,-0.00022432,-0.00018905
 ,-0.00087160,-0.00286585,0.00061922,0.00111935,-0.00083137,0.00989413,
 -0.01911311,0.00174739,0.00059785,0.00079550,0.01743076,0.13784840,-0.
 21142042,0.00016641,-0.00033102,-0.00049026,0.00035376,0.00029676,0.00
 033497,-0.00017988,-0.00029797,0.00014260,0.00019246,0.00016782,-0.000
 38442,0.00007042,-0.00036927,0.00027888,0.00000165,0.00000787,0.000004
 75,-0.00007790,0.00000143,-0.00002314,0.00000679,-0.00003268,0.0000062
 8,0.00000077,-0.00001637,-0.00000843,-0.00002242,-0.00000406,0.0000079
 3,-0.00019517,-0.00013995,0.00004778,-0.00004470,0.00008815,0.00018886
 ,-0.00037907,0.00028844,0.00023877,-0.00053301,-0.00862982,0.01133318,
 -0.01342272,-0.15042104,0.22761067,-0.00012460,0.00000735,0.00002392,0
 .00020557,-0.00016023,-0.00029096,-0.00130540,-0.00065050,-0.00030268,
 -0.00026053,-0.00022672,0.00059896,0.00107714,0.00026742,0.00144280,-0
 .03034300,0.00425946,0.01384757,-0.00050318,0.00212515,-0.00323071,-0.
 21785374,0.05506813,0.12087921,0.00066246,-0.00033110,-0.00047731,-0.0
 0013225,0.00016940,0.00032831,-0.00089431,-0.00096852,0.00052146,0.000
 14136,0.00142502,0.00021687,-0.00132720,0.00042548,0.00030564,0.000002
 15,0.00000306,-0.00000224,0.00000219,0.00000242,-0.00000680,0.00000231
 ,-0.00004175,-0.00000732,-0.00004074,-0.00001192,-0.00000982,0.0000107
 9,0.00001020,0.00000394,0.00009856,-0.00004611,-0.00002506,-0.00004086
 ,0.00019687,-0.00059326,-0.00011846,0.00005485,-0.00005109,0.00678994,
 -0.00189502,-0.00415380,0.00141024,0.00007659,-0.00133531,0.24254155,-
 0.00002474,0.00003856,0.00001451,0.00014694,0.00011766,-0.00006710,-0.
 00064568,-0.00027666,0.00025343,0.00015346,-0.00014033,-0.00017181,0.0
 0037600,0.00039289,0.00001867,-0.00472857,0.00021255,0.00317506,-0.000
 86001,0.00039597,-0.00100211,0.06044156,-0.06889307,-0.04187509,-0.002
 50238,0.00026846,0.00164390,0.00126416,-0.00058261,-0.00097351,0.00262
 908,0.00176201,-0.00172019,-0.00277678,-0.00558643,0.00056839,0.001687
 11,0.00086840,0.00007795,-0.00000332,-0.00000350,-0.00000892,-0.000106
 02,0.00000069,-0.00003295,0.00001239,-0.00004445,-0.00000365,-0.000046
 18,-0.00003562,-0.00000462,-0.00001462,-0.00000512,0.00000102,-0.00003
 988,-0.00000420,-0.00001297,0.00011268,0.00046598,0.00030921,0.0001514
 1,0.00015878,0.00005532,0.02236430,-0.00405322,-0.01528350,-0.01783139
 ,0.00683041,0.01091611,-0.05975952,0.06811284,-0.00017565,0.00000674,0
 .00005739,0.00041759,-0.00013362,-0.00033046,-0.00192801,-0.00089391,-
 0.00112778,-0.00084338,-0.00000860,0.00036982,-0.00093375,0.00009196,0
 .00180391,-0.02522917,0.00463769,0.01234219,-0.00032750,0.00158015,-0.
 00264346,0.13617794,-0.04161826,-0.14692563,-0.00211943,0.00034187,0.0
 0164530,0.00109538,-0.00052046,-0.00087725,0.00301825,0.00272658,-0.00
 192320,-0.00233074,-0.00477842,0.00090614,0.00068429,0.00159025,-0.000
 53078,0.00000142,0.00000317,-0.00000957,-0.00008057,0.00000976,-0.0000
 3026,-0.00000223,-0.00008546,-0.00001580,-0.00006845,-0.00003395,-0.00
 000535,-0.00000108,0.00000979,0.00000197,0.00002475,-0.00004286,-0.000
 01466,-0.00034081,0.00026632,-0.00041890,-0.00020051,0.00009257,-0.000
 03923,0.00435714,0.00070335,-0.00292731,0.01648689,-0.00806749,-0.0095
 2048,-0.12768234,0.04412282,0.15021341\\-0.00000078,0.00000080,0.00000
 254,0.,0.00000097,0.00000125,0.00000022,0.00000037,0.00000032,-0.00000
 032,-0.00000080,-0.00000056,0.00000006,-0.00000103,-0.00000150,0.00000
 076,-0.00000012,-0.00000131,0.00000071,0.00000098,-0.00000052,0.000001
 17,-0.00000022,-0.00000231,-0.00000064,-0.00000002,0.00000115,-0.00000
 034,0.00000083,0.00000142,-0.00000129,-0.00000114,0.00000076,-0.000000
 71,-0.00000162,-0.00000079,-0.00000112,-0.00000260,-0.00000150,-0.0000
 0152,-0.00000021,0.00000239,-0.00000084,0.00000083,0.00000263,-0.00000
 098,0.00000135,0.00000331,-0.00000005,0.00000087,0.00000115,0.00000072
 ,0.00000202,0.00000138,-0.00000083,-0.00000143,-0.00000031,-0.00000019
 ,-0.00000203,-0.00000220,0.00000151,0.00000173,-0.00000027,0.00000198,
 0.00000027,-0.00000308,0.00000145,0.00000077,-0.00000164,0.00000100,-0
 .00000057,-0.00000229\\\@


 "TIGER, TIGER BURNING BRIGHT
 IN THE FOREST OF THE NIGHT.
 WHAT IMMORTAL HAND OR EYE
 CAN FRAME THY FEARFUL SYMMETRYE?"
                     - WILLIAM BLAKE
 Job cpu time:       0 days  0 hours 36 minutes  6.4 seconds.
 Elapsed time:       0 days  0 hours  3 minutes  1.7 seconds.
 File lengths (MBytes):  RWF=    159 Int=      0 D2E=      0 Chk=      6 Scr=      1
 Normal termination of Gaussian 16 at Fri Mar  6 15:21:09 2020.
