 Entering Gaussian System, Link 0=g16
 Input=c1c2im_bcn4.gjf
 Output=c1c2im_bcn4.log
 Initial command:
 /opt/g16/l1.exe "/scratch/mtmjea001/heat_capicities/c1c2im_bcn4/Gau-10924.inp" -scrdir="/scratch/mtmjea001/heat_capicities/c1c2im_bcn4/"
 Entering Link 1 = /opt/g16/l1.exe PID=     10925.
  
 Copyright (c) 1988-2019, Gaussian, Inc.  All Rights Reserved.
  
 This is part of the Gaussian(R) 16 program.  It is based on
 the Gaussian(R) 09 system (copyright 2009, Gaussian, Inc.),
 the Gaussian(R) 03 system (copyright 2003, Gaussian, Inc.),
 the Gaussian(R) 98 system (copyright 1998, Gaussian, Inc.),
 the Gaussian(R) 94 system (copyright 1995, Gaussian, Inc.),
 the Gaussian 92(TM) system (copyright 1992, Gaussian, Inc.),
 the Gaussian 90(TM) system (copyright 1990, Gaussian, Inc.),
 the Gaussian 88(TM) system (copyright 1988, Gaussian, Inc.),
 the Gaussian 86(TM) system (copyright 1986, Carnegie Mellon
 University), and the Gaussian 82(TM) system (copyright 1983,
 Carnegie Mellon University). Gaussian is a federally registered
 trademark of Gaussian, Inc.
  
 This software contains proprietary and confidential information,
 including trade secrets, belonging to Gaussian, Inc.
  
 This software is provided under written license and may be
 used, copied, transmitted, or stored only in accord with that
 written license.
  
 The following legend is applicable only to US Government
 contracts under FAR:
  
                    RESTRICTED RIGHTS LEGEND
  
 Use, reproduction and disclosure by the US Government is
 subject to restrictions as set forth in subparagraphs (a)
 and (c) of the Commercial Computer Software - Restricted
 Rights clause in FAR 52.227-19.
  
 Gaussian, Inc.
 340 Quinnipiac St., Bldg. 40, Wallingford CT 06492
  
  
 ---------------------------------------------------------------
 Warning -- This program may not be used in any manner that
 competes with the business of Gaussian, Inc. or will provide
 assistance to any competitor of Gaussian, Inc.  The licensee
 of this program is prohibited from giving any competitor of
 Gaussian, Inc. access to this program.  By using this program,
 the user acknowledges that Gaussian, Inc. is engaged in the
 business of creating and licensing software in the field of
 computational chemistry and represents and warrants to the
 licensee that it is not a competitor of Gaussian, Inc. and that
 it will not use this program in any manner prohibited above.
 ---------------------------------------------------------------
  

 Cite this work as:
 Gaussian 16, Revision C.01,
 M. J. Frisch, G. W. Trucks, H. B. Schlegel, G. E. Scuseria, 
 M. A. Robb, J. R. Cheeseman, G. Scalmani, V. Barone, 
 G. A. Petersson, H. Nakatsuji, X. Li, M. Caricato, A. V. Marenich, 
 J. Bloino, B. G. Janesko, R. Gomperts, B. Mennucci, H. P. Hratchian, 
 J. V. Ortiz, A. F. Izmaylov, J. L. Sonnenberg, D. Williams-Young, 
 F. Ding, F. Lipparini, F. Egidi, J. Goings, B. Peng, A. Petrone, 
 T. Henderson, D. Ranasinghe, V. G. Zakrzewski, J. Gao, N. Rega, 
 G. Zheng, W. Liang, M. Hada, M. Ehara, K. Toyota, R. Fukuda, 
 J. Hasegawa, M. Ishida, T. Nakajima, Y. Honda, O. Kitao, H. Nakai, 
 T. Vreven, K. Throssell, J. A. Montgomery, Jr., J. E. Peralta, 
 F. Ogliaro, M. J. Bearpark, J. J. Heyd, E. N. Brothers, K. N. Kudin, 
 V. N. Staroverov, T. A. Keith, R. Kobayashi, J. Normand, 
 K. Raghavachari, A. P. Rendell, J. C. Burant, S. S. Iyengar, 
 J. Tomasi, M. Cossi, J. M. Millam, M. Klene, C. Adamo, R. Cammi, 
 J. W. Ochterski, R. L. Martin, K. Morokuma, O. Farkas, 
 J. B. Foresman, and D. J. Fox, Gaussian, Inc., Wallingford CT, 2019.
 
 ******************************************
 Gaussian 16:  ES64L-G16RevC.01  3-Jul-2019
                 9-Mar-2020 
 ******************************************
 %chk=c1c2im_bcn4.chk
 %mem=52Gb
 %nprocs=12
 Will use up to   12 processors via shared memory.
 Default route: test
 ------------------------------------------------------------------
 #wb97xd/def2svp/w06 opt(tight) freq temperature=351.1 scale=0.9788
 ------------------------------------------------------------------
 1/7=10,18=20,19=15,26=3,38=1,112=351100,114=978800/1,3;
 2/9=110,12=2,17=6,18=5,40=1/2;
 3/5=43,7=101,11=2,25=1,30=1,71=1,74=-58,82=40/1,2,3;
 4//1;
 5/5=2,38=5/2;
 6/7=2,8=2,9=2,10=2,28=1/1;
 7//1,2,3,16;
 1/7=10,18=20,19=15,26=3/3(2);
 2/9=110/2;
 99//99;
 2/9=110/2;
 3/5=43,7=101,11=2,25=1,30=1,71=1,74=-58,82=40/1,2,3;
 4/5=5,16=3,69=1/1;
 5/5=2,38=5/2;
 7//1,2,3,16;
 1/7=10,18=20,19=15,26=3/3(-5);
 2/9=110/2;
 6/7=2,8=2,9=2,10=2,19=2,28=1/1;
 99/9=1/99;
 -----------
 c1c2im_bcn4
 -----------
 Symbolic Z-matrix:
 Charge =  0 Multiplicity = 1
 B                     2.0385    0.32065   0.01368 
 C                     1.81261  -1.18841  -0.37055 
 N                     1.53529  -2.27744  -0.62825 
 C                     1.22793   0.55494   1.34485 
 N                     0.50222   0.69979   2.23043 
 C                     1.29277   1.19533  -1.06226 
 N                     0.61777   1.78998  -1.78406 
 C                     3.55103   0.68451   0.15299 
 N                     4.66415   0.95273   0.25825 
 C                    -3.21411   2.21296   0.29741 
 C                    -1.7465    1.80915   0.26739 
 N                    -1.61747   0.39752  -0.07947 
 C                    -1.51195  -0.09703  -1.34973 
 C                    -1.32962  -1.43806  -1.23542 
 N                    -1.34113  -1.72655   0.10344 
 C                    -1.50743  -0.60146   0.79384 
 C                    -1.05763  -3.03664   0.6624 
 H                    -3.28964   3.26848   0.55406 
 H                    -3.75534   1.62842   1.04119 
 H                    -3.67328   2.05289  -0.67778 
 H                    -1.27312   1.94913   1.24354 
 H                    -1.19205   2.37658  -0.48614 
 H                    -1.52673   0.54729  -2.21111 
 H                    -1.16914  -2.19952  -1.97765 
 H                    -1.50102  -0.50118   1.86583 
 H                    -0.03943  -3.30973   0.36836 
 H                    -1.76705  -3.76249   0.26571 
 H                    -1.13563  -2.98678   1.74654 
 
 Add virtual bond connecting atoms H26        and N3         Dist= 4.03D+00.

 GradGradGradGradGradGradGradGradGradGradGradGradGradGradGradGradGradGrad
 Berny optimization.
 Initialization pass.
                           ----------------------------
                           !    Initial Parameters    !
                           ! (Angstroms and Degrees)  !
 --------------------------                            --------------------------
 ! Name  Definition              Value          Derivative Info.                !
 --------------------------------------------------------------------------------
 ! R1    R(1,2)                  1.5735         estimate D2E/DX2                !
 ! R2    R(1,4)                  1.576          estimate D2E/DX2                !
 ! R3    R(1,6)                  1.5744         estimate D2E/DX2                !
 ! R4    R(1,8)                  1.5619         estimate D2E/DX2                !
 ! R5    R(2,3)                  1.153          estimate D2E/DX2                !
 ! R6    R(3,26)                 2.1304         estimate D2E/DX2                !
 ! R7    R(4,5)                  1.1541         estimate D2E/DX2                !
 ! R8    R(6,7)                  1.1534         estimate D2E/DX2                !
 ! R9    R(8,9)                  1.1498         estimate D2E/DX2                !
 ! R10   R(10,11)                1.5224         estimate D2E/DX2                !
 ! R11   R(10,18)                1.0889         estimate D2E/DX2                !
 ! R12   R(10,19)                1.0899         estimate D2E/DX2                !
 ! R13   R(10,20)                1.0897         estimate D2E/DX2                !
 ! R14   R(11,12)                1.4593         estimate D2E/DX2                !
 ! R15   R(11,21)                1.0939         estimate D2E/DX2                !
 ! R16   R(11,22)                1.0942         estimate D2E/DX2                !
 ! R17   R(12,13)                1.3672         estimate D2E/DX2                !
 ! R18   R(12,16)                1.3314         estimate D2E/DX2                !
 ! R19   R(13,14)                1.3582         estimate D2E/DX2                !
 ! R20   R(13,23)                1.0758         estimate D2E/DX2                !
 ! R21   R(14,15)                1.3696         estimate D2E/DX2                !
 ! R22   R(14,24)                1.0754         estimate D2E/DX2                !
 ! R23   R(15,16)                1.3305         estimate D2E/DX2                !
 ! R24   R(15,17)                1.4523         estimate D2E/DX2                !
 ! R25   R(16,25)                1.0767         estimate D2E/DX2                !
 ! R26   R(17,26)                1.0944         estimate D2E/DX2                !
 ! R27   R(17,27)                1.0897         estimate D2E/DX2                !
 ! R28   R(17,28)                1.0881         estimate D2E/DX2                !
 ! A1    A(2,1,4)              105.9609         estimate D2E/DX2                !
 ! A2    A(2,1,6)              107.3333         estimate D2E/DX2                !
 ! A3    A(2,1,8)              112.5952         estimate D2E/DX2                !
 ! A4    A(4,1,6)              104.5376         estimate D2E/DX2                !
 ! A5    A(4,1,8)              112.8352         estimate D2E/DX2                !
 ! A6    A(6,1,8)              112.9675         estimate D2E/DX2                !
 ! A7    A(2,3,26)             122.0676         estimate D2E/DX2                !
 ! A8    A(11,10,18)           109.1851         estimate D2E/DX2                !
 ! A9    A(11,10,19)           110.4819         estimate D2E/DX2                !
 ! A10   A(11,10,20)           110.462          estimate D2E/DX2                !
 ! A11   A(18,10,19)           108.9414         estimate D2E/DX2                !
 ! A12   A(18,10,20)           108.9105         estimate D2E/DX2                !
 ! A13   A(19,10,20)           108.8258         estimate D2E/DX2                !
 ! A14   A(10,11,12)           110.2725         estimate D2E/DX2                !
 ! A15   A(10,11,21)           111.4465         estimate D2E/DX2                !
 ! A16   A(10,11,22)           111.3774         estimate D2E/DX2                !
 ! A17   A(12,11,21)           107.3151         estimate D2E/DX2                !
 ! A18   A(12,11,22)           107.0467         estimate D2E/DX2                !
 ! A19   A(21,11,22)           109.2026         estimate D2E/DX2                !
 ! A20   A(11,12,13)           125.2783         estimate D2E/DX2                !
 ! A21   A(11,12,16)           125.2524         estimate D2E/DX2                !
 ! A22   A(13,12,16)           109.3672         estimate D2E/DX2                !
 ! A23   A(12,13,14)           106.8171         estimate D2E/DX2                !
 ! A24   A(12,13,23)           121.7495         estimate D2E/DX2                !
 ! A25   A(14,13,23)           131.3449         estimate D2E/DX2                !
 ! A26   A(13,14,15)           106.805          estimate D2E/DX2                !
 ! A27   A(13,14,24)           131.3817         estimate D2E/DX2                !
 ! A28   A(15,14,24)           121.789          estimate D2E/DX2                !
 ! A29   A(14,15,16)           109.2802         estimate D2E/DX2                !
 ! A30   A(14,15,17)           124.3746         estimate D2E/DX2                !
 ! A31   A(16,15,17)           125.9809         estimate D2E/DX2                !
 ! A32   A(12,16,15)           107.7249         estimate D2E/DX2                !
 ! A33   A(12,16,25)           125.7084         estimate D2E/DX2                !
 ! A34   A(15,16,25)           126.489          estimate D2E/DX2                !
 ! A35   A(15,17,26)           107.656          estimate D2E/DX2                !
 ! A36   A(15,17,27)           109.4921         estimate D2E/DX2                !
 ! A37   A(15,17,28)           109.1569         estimate D2E/DX2                !
 ! A38   A(26,17,27)           109.9778         estimate D2E/DX2                !
 ! A39   A(26,17,28)           110.2321         estimate D2E/DX2                !
 ! A40   A(27,17,28)           110.2772         estimate D2E/DX2                !
 ! A41   A(3,26,17)            133.8252         estimate D2E/DX2                !
 ! A42   L(1,2,3,12,-1)        174.3627         estimate D2E/DX2                !
 ! A43   L(1,4,5,11,-1)        173.0371         estimate D2E/DX2                !
 ! A44   L(1,6,7,11,-1)        172.9911         estimate D2E/DX2                !
 ! A45   L(1,8,9,3,-1)         180.0505         estimate D2E/DX2                !
 ! A46   L(1,2,3,12,-2)        181.1348         estimate D2E/DX2                !
 ! A47   L(1,4,5,11,-2)        175.8048         estimate D2E/DX2                !
 ! A48   L(1,6,7,11,-2)        182.9777         estimate D2E/DX2                !
 ! A49   L(1,8,9,3,-2)         180.1894         estimate D2E/DX2                !
 ! D1    D(4,1,3,26)            13.1902         estimate D2E/DX2                !
 ! D2    D(6,1,3,26)           -96.9473         estimate D2E/DX2                !
 ! D3    D(8,1,3,26)           137.2354         estimate D2E/DX2                !
 ! D4    D(2,3,26,17)           44.0244         estimate D2E/DX2                !
 ! D5    D(18,10,11,12)       -179.7991         estimate D2E/DX2                !
 ! D6    D(18,10,11,21)         61.1241         estimate D2E/DX2                !
 ! D7    D(18,10,11,22)        -61.1016         estimate D2E/DX2                !
 ! D8    D(19,10,11,12)         60.4092         estimate D2E/DX2                !
 ! D9    D(19,10,11,21)        -58.6675         estimate D2E/DX2                !
 ! D10   D(19,10,11,22)        179.1067         estimate D2E/DX2                !
 ! D11   D(20,10,11,12)        -60.0577         estimate D2E/DX2                !
 ! D12   D(20,10,11,21)       -179.1344         estimate D2E/DX2                !
 ! D13   D(20,10,11,22)         58.6398         estimate D2E/DX2                !
 ! D14   D(10,11,12,13)         89.1432         estimate D2E/DX2                !
 ! D15   D(10,11,12,16)        -94.9246         estimate D2E/DX2                !
 ! D16   D(21,11,12,13)       -149.2942         estimate D2E/DX2                !
 ! D17   D(21,11,12,16)         26.638          estimate D2E/DX2                !
 ! D18   D(22,11,12,13)        -32.1685         estimate D2E/DX2                !
 ! D19   D(22,11,12,16)        143.7638         estimate D2E/DX2                !
 ! D20   D(11,12,13,14)        176.3534         estimate D2E/DX2                !
 ! D21   D(11,12,13,23)         -0.5878         estimate D2E/DX2                !
 ! D22   D(16,12,13,14)         -0.1263         estimate D2E/DX2                !
 ! D23   D(16,12,13,23)       -177.0675         estimate D2E/DX2                !
 ! D24   D(11,12,16,15)       -176.8308         estimate D2E/DX2                !
 ! D25   D(11,12,16,25)          0.1276         estimate D2E/DX2                !
 ! D26   D(13,12,16,15)         -0.35           estimate D2E/DX2                !
 ! D27   D(13,12,16,25)        176.6084         estimate D2E/DX2                !
 ! D28   D(12,13,14,15)          0.5365         estimate D2E/DX2                !
 ! D29   D(12,13,14,24)       -177.6505         estimate D2E/DX2                !
 ! D30   D(23,13,14,15)        177.0714         estimate D2E/DX2                !
 ! D31   D(23,13,14,24)         -1.1156         estimate D2E/DX2                !
 ! D32   D(13,14,15,16)         -0.7687         estimate D2E/DX2                !
 ! D33   D(13,14,15,17)       -174.188          estimate D2E/DX2                !
 ! D34   D(24,14,15,16)        177.631          estimate D2E/DX2                !
 ! D35   D(24,14,15,17)          4.2117         estimate D2E/DX2                !
 ! D36   D(14,15,16,12)          0.6933         estimate D2E/DX2                !
 ! D37   D(14,15,16,25)       -176.2348         estimate D2E/DX2                !
 ! D38   D(17,15,16,12)        173.9806         estimate D2E/DX2                !
 ! D39   D(17,15,16,25)         -2.9474         estimate D2E/DX2                !
 ! D40   D(14,15,17,26)         60.3447         estimate D2E/DX2                !
 ! D41   D(14,15,17,27)        -59.1938         estimate D2E/DX2                !
 ! D42   D(14,15,17,28)        179.9991         estimate D2E/DX2                !
 ! D43   D(16,15,17,26)       -111.9731         estimate D2E/DX2                !
 ! D44   D(16,15,17,27)        128.4884         estimate D2E/DX2                !
 ! D45   D(16,15,17,28)          7.6814         estimate D2E/DX2                !
 ! D46   D(15,17,26,3)           6.6183         estimate D2E/DX2                !
 ! D47   D(27,17,26,3)         125.8474         estimate D2E/DX2                !
 ! D48   D(28,17,26,3)        -112.3506         estimate D2E/DX2                !
 --------------------------------------------------------------------------------
 Trust Radius=3.00D-01 FncErr=1.00D-07 GrdErr=1.00D-06 EigMax=2.50D+02 EigMin=1.00D-04
 Number of steps in this run=    135 maximum allowed number of steps=    168.
 GradGradGradGradGradGradGradGradGradGradGradGradGradGradGradGradGradGrad

                          Input orientation:                          
 ---------------------------------------------------------------------
 Center     Atomic      Atomic             Coordinates (Angstroms)
 Number     Number       Type             X           Y           Z
 ---------------------------------------------------------------------
      1          5           0        2.038500    0.320650    0.013680
      2          6           0        1.812610   -1.188410   -0.370550
      3          7           0        1.535290   -2.277440   -0.628250
      4          6           0        1.227930    0.554940    1.344850
      5          7           0        0.502220    0.699790    2.230430
      6          6           0        1.292770    1.195330   -1.062260
      7          7           0        0.617770    1.789980   -1.784060
      8          6           0        3.551030    0.684510    0.152990
      9          7           0        4.664150    0.952730    0.258250
     10          6           0       -3.214110    2.212960    0.297410
     11          6           0       -1.746500    1.809150    0.267390
     12          7           0       -1.617470    0.397520   -0.079470
     13          6           0       -1.511950   -0.097030   -1.349730
     14          6           0       -1.329620   -1.438060   -1.235420
     15          7           0       -1.341130   -1.726550    0.103440
     16          6           0       -1.507430   -0.601460    0.793840
     17          6           0       -1.057630   -3.036640    0.662400
     18          1           0       -3.289640    3.268480    0.554060
     19          1           0       -3.755340    1.628420    1.041190
     20          1           0       -3.673280    2.052890   -0.677780
     21          1           0       -1.273120    1.949130    1.243540
     22          1           0       -1.192050    2.376580   -0.486140
     23          1           0       -1.526730    0.547290   -2.211110
     24          1           0       -1.169140   -2.199520   -1.977650
     25          1           0       -1.501020   -0.501180    1.865830
     26          1           0       -0.039430   -3.309730    0.368360
     27          1           0       -1.767050   -3.762490    0.265710
     28          1           0       -1.135630   -2.986780    1.746540
 ---------------------------------------------------------------------
                    Distance matrix (angstroms):
                    1          2          3          4          5
     1  B    0.000000
     2  C    1.573506   0.000000
     3  N    2.723117   1.152954   0.000000
     4  C    1.576049   2.514700   3.465540   0.000000
     5  N    2.723579   3.470953   4.254784   1.154075   0.000000
     6  C    1.574429   2.535924   3.508178   2.491683   3.422329
     7  N    2.721998   3.506631   4.326852   3.418727   4.161490
     8  C    1.561905   2.608453   3.666973   2.614214   3.689340
     9  N    2.711711   3.620932   4.583628   3.625816   4.612498
    10  C    5.590282   6.106014   6.601313   4.855706   4.453915
    11  C    4.075074   4.696765   5.317192   3.403116   3.184485
    12  N    3.657964   3.790165   4.170907   3.185870   3.149618
    13  C    3.826100   3.633539   3.815808   3.897790   4.184417
    14  C    3.999693   3.268629   3.046461   4.143779   4.465216
    15  N    3.952339   3.234244   3.018715   3.653268   3.716067
    16  C    3.746005   3.566929   3.753584   3.020442   2.792084
    17  C    4.612836   3.566682   2.994227   4.311493   4.341976
    18  H    6.113165   6.837523   7.445471   5.328892   4.877149
    19  H    6.027821   6.397625   6.784802   5.106618   4.517019
    20  H    6.008594   6.379295   6.773730   5.509696   5.265298
    21  H    3.889901   4.687342   5.408758   2.865184   2.384667
    22  H    3.861751   4.663743   5.396154   3.539378   3.614129
    23  H    4.208553   4.189452   4.456513   4.498118   4.885404
    24  H    4.539340   3.534961   3.023391   4.936801   5.376558
    25  H    4.078488   4.056331   4.312159   2.972201   2.363944
    26  H    4.198005   2.911364   2.130398   4.182751   4.453868
    27  H    5.587286   4.454737   3.729610   5.364201   5.377886
    28  H    4.900714   4.050719   3.643708   4.276862   4.062942
                    6          7          8          9         10
     6  C    0.000000
     7  N    1.153355   0.000000
     8  C    2.614863   3.684866   0.000000
     9  N    3.628885   4.609253   1.149808   0.000000
    10  C    4.816248   4.381179   6.937156   7.978515   0.000000
    11  C    3.373708   3.130270   5.416800   6.467609   1.522446
    12  N    3.173622   3.137016   5.181679   6.315146   2.446859
    13  C    3.101498   2.878395   5.338796   6.467751   3.308545
    14  C    3.720438   3.809669   5.500339   6.623610   4.385296
    15  N    4.102885   4.445889   5.454255   6.577682   4.366396
    16  C    3.809814   4.108653   5.258557   6.386765   3.328687
    17  C    5.138911   5.664662   5.945267   6.986929   5.686996
    18  H    5.282890   4.787548   7.323423   8.289329   1.088897
    19  H    5.485935   5.208861   7.420439   8.482769   1.089874
    20  H    5.054195   4.439154   7.399547   8.461634   1.089704
    21  H    3.531107   3.573116   5.104996   6.100392   2.175364
    22  H    2.810978   2.303073   5.076258   6.072606   2.174730
    23  H    3.112779   2.515061   5.602807   6.677508   3.451721
    24  H    4.292312   4.375687   5.927669   6.997371   5.369151
    25  H    4.388293   4.802123   5.464695   6.535097   3.572279
    26  H    4.910906   5.574214   5.375104   6.348571   6.370536
    27  H    5.975448   6.381132   6.933289   7.974565   6.148251
    28  H    5.592542   6.193302   6.162999   7.167440   5.784233
                   11         12         13         14         15
    11  C    0.000000
    12  N    1.459335   0.000000
    13  C    2.510700   1.367214   0.000000
    14  C    3.602305   2.188249   1.358187   0.000000
    15  N    3.562637   2.149766   2.190027   1.369637   0.000000
    16  C    2.478981   1.331443   2.202127   2.202138   1.330464
    17  C    4.910423   3.557702   3.591153   2.496229   1.452289
    18  H    2.143153   3.382296   4.255732   5.403280   5.380527
    19  H    2.160293   2.709517   3.704926   4.524419   4.238350
    20  H    2.159916   2.706396   3.121701   4.241513   4.509257
    21  H    1.093870   2.067952   3.311927   4.197796   3.849036
    22  H    1.094166   2.064713   2.639483   3.889965   4.147952
    23  H    2.789902   2.138821   1.075798   2.220909   3.249913
    24  H    4.630657   3.247877   2.220871   1.075398   2.141078
    25  H    2.820088   2.146023   3.240877   3.244206   2.152467
    26  H    5.396964   4.053944   3.929579   2.782058   2.066655
    27  H    5.571678   4.176985   4.013766   2.801377   2.086334
    28  H    5.055887   3.875560   4.251960   3.365747   2.080910
                   16         17         18         19         20
    16  C    0.000000
    17  C    2.479858   0.000000
    18  H    4.267341   6.689405   0.000000
    19  H    3.175948   5.402213   1.773124   0.000000
    20  H    3.728558   5.877161   1.772644   1.772503   0.000000
    21  H    2.600508   5.024148   2.506476   2.511019   3.076200
    22  H    3.256768   5.535356   2.505471   3.076189   2.509582
    23  H    3.217099   4.617539   4.261325   4.088154   3.037369
    24  H    3.217047   2.771835   6.387887   5.518600   5.103271
    25  H    1.076689   2.841372   4.373813   3.208923   4.208555
    26  H    3.109788   1.094426   7.339700   6.216592   6.561781
    27  H    3.215344   1.089724   7.199720   5.797980   6.192135
    28  H    2.595308   1.088085   6.722354   5.353547   6.141276
                   21         22         23         24         25
    21  H    0.000000
    22  H    1.783558   0.000000
    23  H    3.736854   2.536500   0.000000
    24  H    5.253396   4.813088   2.779809   0.000000
    25  H    2.538346   3.729441   4.209678   4.215073   0.000000
    26  H    5.472069   5.864540   4.872610   2.830649   3.502373
    27  H    5.815731   6.211609   4.976605   2.798756   3.642430
    28  H    4.963378   5.809791   5.320301   3.806638   2.515144
                   26         27         28
    26  H    0.000000
    27  H    1.788910   0.000000
    28  H    1.790344   1.786974   0.000000
 Stoichiometry    C10H11BN6
 Framework group  C1[X(C10H11BN6)]
 Deg. of freedom    78
 Full point group                 C1      NOp   1
 Largest Abelian subgroup         C1      NOp   1
 Largest concise Abelian subgroup C1      NOp   1
                         Standard orientation:                         
 ---------------------------------------------------------------------
 Center     Atomic      Atomic             Coordinates (Angstroms)
 Number     Number       Type             X           Y           Z
 ---------------------------------------------------------------------
      1          5           0       -1.998998   -0.272405    0.011146
      2          6           0       -1.736105    1.231910   -0.368123
      3          7           0       -1.432173    2.314739   -0.621912
      4          6           0       -1.198194   -0.529633    1.343991
      5          7           0       -0.478772   -0.694186    2.231258
      6          6           0       -1.271109   -1.161602   -1.065113
      7          7           0       -0.608316   -1.770149   -1.786641
      8          6           0       -3.520169   -0.600527    0.145026
      9          7           0       -4.639666   -0.842453    0.246288
     10          6           0        3.206207   -2.290051    0.304733
     11          6           0        1.748723   -1.851323    0.271603
     12          7           0        1.654367   -0.436061   -0.071606
     13          6           0        1.564424    0.064391   -1.340752
     14          6           0        1.413733    1.409060   -1.223150
     15          7           0        1.428130    1.693471    0.116555
     16          6           0        1.565546    0.562824    0.804225
     17          6           0        1.174240    3.008381    0.678421
     18          1           0        3.255825   -3.347780    0.558592
     19          1           0        3.758988   -1.720637    1.051745
     20          1           0        3.671953   -2.138251   -0.668659
     21          1           0        1.269246   -1.982703    1.245971
     22          1           0        1.183162   -2.403290   -0.485149
     23          1           0        1.566420   -0.577701   -2.203918
     24          1           0        1.273632    2.176187   -1.963670
     25          1           0        1.553566    0.459745    1.875902
     26          1           0        0.163708    3.306459    0.382205
     27          1           0        1.901915    3.718231    0.285863
     28          1           0        1.247810    2.953664    1.762636
 ---------------------------------------------------------------------
 Rotational constants (GHZ):           0.6640901           0.4162125           0.3345192
 Standard basis: def2SVP (5D, 7F)
 There are   310 symmetry adapted cartesian basis functions of A   symmetry.
 There are   293 symmetry adapted basis functions of A   symmetry.
   293 basis functions,   502 primitive gaussians,   310 cartesian basis functions
    59 alpha electrons       59 beta electrons
       nuclear repulsion energy      1118.4001511310 Hartrees.
 NAtoms=   28 NActive=   28 NUniq=   28 SFac= 1.00D+00 NAtFMM=   60 NAOKFM=F Big=F
 Integral buffers will be    131072 words long.
 Raffenetti 2 integral format.
 Two-electron integral symmetry is turned on.
 Nuclear repulsion after empirical dispersion term =     1118.3748256455 Hartrees.
 Standard density basis: W06 (5D, 7F)
   954 Density fitting functions
 There are   954 symmetry adapted density basis functions of A   symmetry.
 One-electron integrals computed using PRISM.
   1 Symmetry operations used in ECPInt.
 ECPInt:  NShTT=    9180 NPrTT=   33924 LenC2=    8790 LenP2D=   23589.
 LDataN:  DoStor=T MaxTD1= 4 Len=   56
 NBasis=   293 RedAO= T EigKep=  5.12D-04  NBF=   293
 NBsUse=   293 1.00D-06 EigRej= -1.00D+00 NBFU=   293
 ExpMin= 8.36D-02 ExpMax= 1.71D+03 ExpMxC= 2.58D+02 IAcc=3 IRadAn=         5 AccDes= 0.00D+00
 Harris functional with IExCor= 4639 and IRadAn=       5 diagonalized for initial guess.
 HarFok:  IExCor= 4639 AccDes= 0.00D+00 IRadAn=         5 IDoV= 1 UseB2=F ITyADJ=14
 ICtDFT=  3500011 ScaDFX=  1.000000  1.000000  1.000000  1.000000
 FoFCou: FMM=F IPFlag=           0 FMFlag=      100000 FMFlg1=           0
         NFxFlg=           0 DoJE=T BraDBF=F KetDBF=T FulRan=T
         wScrn=  0.000000 ICntrl=       500 IOpCl=  0 I1Cent=   200000004 NGrid=           0
         NMat0=    1 NMatS0=      1 NMatT0=    0 NMatD0=    1 NMtDS0=    0 NMtDT0=    0
 Petite list used in FoFCou.
 Requested convergence on RMS density matrix=1.00D-08 within 128 cycles.
 Requested convergence on MAX density matrix=1.00D-06.
 Requested convergence on             energy=1.00D-06.
 No special actions if energy rises.
 Integral accuracy reduced to 1.0D-05 until final iterations.
 Initial convergence to 1.0D-05 achieved.  Increase integral accuracy.
 SCF Done:  E(RwB97XD) =  -740.248890447     A.U. after   16 cycles
            NFock= 16  Conv=0.39D-08     -V/T= 2.0096

 **********************************************************************

            Population analysis using the SCF Density.

 **********************************************************************

 Orbital symmetries:
       Occupied  (A) (A) (A) (A) (A) (A) (A) (A) (A) (A) (A) (A)
                 (A) (A) (A) (A) (A) (A) (A) (A) (A) (A) (A) (A)
                 (A) (A) (A) (A) (A) (A) (A) (A) (A) (A) (A) (A)
                 (A) (A) (A) (A) (A) (A) (A) (A) (A) (A) (A) (A)
                 (A) (A) (A) (A) (A) (A) (A) (A) (A) (A) (A)
       Virtual   (A) (A) (A) (A) (A) (A) (A) (A) (A) (A) (A) (A)
                 (A) (A) (A) (A) (A) (A) (A) (A) (A) (A) (A) (A)
                 (A) (A) (A) (A) (A) (A) (A) (A) (A) (A) (A) (A)
                 (A) (A) (A) (A) (A) (A) (A) (A) (A) (A) (A) (A)
                 (A) (A) (A) (A) (A) (A) (A) (A) (A) (A) (A) (A)
                 (A) (A) (A) (A) (A) (A) (A) (A) (A) (A) (A) (A)
                 (A) (A) (A) (A) (A) (A) (A) (A) (A) (A) (A) (A)
                 (A) (A) (A) (A) (A) (A) (A) (A) (A) (A) (A) (A)
                 (A) (A) (A) (A) (A) (A) (A) (A) (A) (A) (A) (A)
                 (A) (A) (A) (A) (A) (A) (A) (A) (A) (A) (A) (A)
                 (A) (A) (A) (A) (A) (A) (A) (A) (A) (A) (A) (A)
                 (A) (A) (A) (A) (A) (A) (A) (A) (A) (A) (A) (A)
                 (A) (A) (A) (A) (A) (A) (A) (A) (A) (A) (A) (A)
                 (A) (A) (A) (A) (A) (A) (A) (A) (A) (A) (A) (A)
                 (A) (A) (A) (A) (A) (A) (A) (A) (A) (A) (A) (A)
                 (A) (A) (A) (A) (A) (A) (A) (A) (A) (A) (A) (A)
                 (A) (A) (A) (A) (A) (A) (A) (A) (A) (A) (A) (A)
                 (A) (A) (A) (A) (A) (A) (A) (A) (A) (A) (A) (A)
                 (A) (A) (A) (A) (A) (A) (A) (A) (A) (A) (A) (A)
                 (A) (A) (A) (A) (A) (A)
 The electronic state is 1-A.
 Alpha  occ. eigenvalues --  -14.57832 -14.57202 -14.44873 -14.44491 -14.44279
 Alpha  occ. eigenvalues --  -14.41885 -10.43582 -10.38474 -10.38409 -10.37825
 Alpha  occ. eigenvalues --  -10.37281 -10.33028 -10.32795 -10.32582 -10.32368
 Alpha  occ. eigenvalues --  -10.29585  -6.89670  -1.21602  -1.09290  -1.00444
 Alpha  occ. eigenvalues --   -0.99677  -0.99377  -0.96821  -0.94124  -0.91005
 Alpha  occ. eigenvalues --   -0.86239  -0.79192  -0.76889  -0.76586  -0.73860
 Alpha  occ. eigenvalues --   -0.68109  -0.64187  -0.60913  -0.60501  -0.59306
 Alpha  occ. eigenvalues --   -0.58879  -0.58867  -0.58747  -0.57925  -0.56708
 Alpha  occ. eigenvalues --   -0.55746  -0.53530  -0.51167  -0.50237  -0.48244
 Alpha  occ. eigenvalues --   -0.46246  -0.46109  -0.45686  -0.44610  -0.44141
 Alpha  occ. eigenvalues --   -0.43752  -0.42818  -0.41999  -0.41478  -0.41087
 Alpha  occ. eigenvalues --   -0.40894  -0.39750  -0.39710  -0.37302
 Alpha virt. eigenvalues --    0.02007   0.05481   0.06135   0.07180   0.07830
 Alpha virt. eigenvalues --    0.09839   0.10076   0.11802   0.12362   0.14057
 Alpha virt. eigenvalues --    0.14510   0.15964   0.16718   0.16992   0.17927
 Alpha virt. eigenvalues --    0.18739   0.18858   0.19141   0.19974   0.20791
 Alpha virt. eigenvalues --    0.21440   0.22052   0.22677   0.24377   0.25295
 Alpha virt. eigenvalues --    0.26698   0.28157   0.28798   0.29327   0.31330
 Alpha virt. eigenvalues --    0.33254   0.35219   0.38796   0.39508   0.41432
 Alpha virt. eigenvalues --    0.41893   0.42474   0.43108   0.46524   0.47020
 Alpha virt. eigenvalues --    0.48233   0.49157   0.50211   0.50900   0.53022
 Alpha virt. eigenvalues --    0.54803   0.55874   0.56299   0.59299   0.59841
 Alpha virt. eigenvalues --    0.60465   0.61673   0.63184   0.64819   0.65008
 Alpha virt. eigenvalues --    0.67036   0.67547   0.67856   0.68828   0.70301
 Alpha virt. eigenvalues --    0.70541   0.71450   0.71746   0.72101   0.73135
 Alpha virt. eigenvalues --    0.73594   0.73967   0.74602   0.75094   0.75823
 Alpha virt. eigenvalues --    0.76860   0.77234   0.77937   0.78519   0.79371
 Alpha virt. eigenvalues --    0.80801   0.82108   0.82746   0.83702   0.83919
 Alpha virt. eigenvalues --    0.84434   0.85456   0.85848   0.86401   0.87461
 Alpha virt. eigenvalues --    0.89118   0.89722   0.93022   0.94943   0.96116
 Alpha virt. eigenvalues --    0.96581   0.99237   1.01685   1.02119   1.03938
 Alpha virt. eigenvalues --    1.04454   1.05970   1.07360   1.08767   1.09150
 Alpha virt. eigenvalues --    1.10673   1.11201   1.12537   1.14149   1.14882
 Alpha virt. eigenvalues --    1.14998   1.16054   1.18674   1.18846   1.19429
 Alpha virt. eigenvalues --    1.22411   1.22542   1.23738   1.24827   1.26373
 Alpha virt. eigenvalues --    1.27994   1.30018   1.31129   1.33481   1.36399
 Alpha virt. eigenvalues --    1.39732   1.42486   1.43570   1.48067   1.52131
 Alpha virt. eigenvalues --    1.55044   1.56406   1.58330   1.60813   1.63585
 Alpha virt. eigenvalues --    1.64766   1.65547   1.69643   1.70435   1.71339
 Alpha virt. eigenvalues --    1.72487   1.72964   1.74224   1.75370   1.76591
 Alpha virt. eigenvalues --    1.77049   1.77788   1.78820   1.80312   1.81060
 Alpha virt. eigenvalues --    1.81462   1.81803   1.82992   1.83913   1.84293
 Alpha virt. eigenvalues --    1.85204   1.85887   1.88109   1.88859   1.89303
 Alpha virt. eigenvalues --    1.91513   1.92306   1.93059   1.95074   1.96629
 Alpha virt. eigenvalues --    1.96915   1.98304   2.00560   2.01807   2.02171
 Alpha virt. eigenvalues --    2.04020   2.04710   2.07232   2.08638   2.11587
 Alpha virt. eigenvalues --    2.12382   2.12784   2.13429   2.14433   2.17979
 Alpha virt. eigenvalues --    2.21321   2.26155   2.32025   2.33514   2.35753
 Alpha virt. eigenvalues --    2.35895   2.36607   2.37768   2.38901   2.39225
 Alpha virt. eigenvalues --    2.39504   2.40718   2.40954   2.42505   2.43152
 Alpha virt. eigenvalues --    2.47078   2.47631   2.49854   2.51387   2.52249
 Alpha virt. eigenvalues --    2.55608   2.60173   2.63078   2.69215   2.74927
 Alpha virt. eigenvalues --    2.76197   2.79831   2.80986   2.83027   2.83921
 Alpha virt. eigenvalues --    2.84119   2.85127   2.87384   2.90385   2.91564
 Alpha virt. eigenvalues --    2.93830   2.95342   2.96240   2.97746   2.97901
 Alpha virt. eigenvalues --    2.98418   2.99125   3.00486   3.02911   3.05741
 Alpha virt. eigenvalues --    3.08987   3.09054   3.10436   3.12506   3.21126
 Alpha virt. eigenvalues --    3.22387   3.23036   3.41077   3.47838   3.52127
 Alpha virt. eigenvalues --    3.53337   3.55351   3.56611   3.58125
          Condensed to atoms (all electrons):
               1          2          3          4          5          6
     1  B    3.687626   0.370469  -0.013446   0.320877  -0.029404   0.353544
     2  C    0.370469   5.011696   0.846806  -0.054547  -0.001400  -0.061307
     3  N   -0.013446   0.846806   6.272150  -0.003442  -0.000186  -0.002331
     4  C    0.320877  -0.054547  -0.003442   5.074839   0.846645  -0.055397
     5  N   -0.029404  -0.001400  -0.000186   0.846645   6.299774  -0.002781
     6  C    0.353544  -0.061307  -0.002331  -0.055397  -0.002781   5.038358
     7  N   -0.022190  -0.001605  -0.000133  -0.003663  -0.000225   0.846420
     8  C    0.362856  -0.027564  -0.001090  -0.026889  -0.000326  -0.026867
     9  N   -0.012636  -0.002099  -0.000037  -0.001931  -0.000034  -0.001934
    10  C    0.000095  -0.000002   0.000000   0.000237   0.000413   0.000300
    11  C   -0.005857   0.000033  -0.000012   0.002624  -0.011938   0.002889
    12  N    0.010003  -0.001361   0.000006  -0.011419  -0.006779  -0.008381
    13  C    0.001110  -0.006970  -0.003570  -0.000326   0.000248   0.006816
    14  C    0.003993   0.003242   0.010468  -0.000041   0.000080  -0.007098
    15  N    0.002278  -0.004931  -0.007043  -0.003146  -0.001453  -0.000066
    16  C   -0.005105   0.003534   0.001140   0.011895  -0.001779   0.000687
    17  C   -0.001366   0.001646  -0.026259   0.000606   0.000177   0.000039
    18  H   -0.000013   0.000000  -0.000000   0.000009  -0.000004   0.000008
    19  H   -0.000007   0.000000  -0.000000   0.000010  -0.000002  -0.000014
    20  H    0.000004   0.000000  -0.000000  -0.000014  -0.000015   0.000005
    21  H   -0.000896   0.000086  -0.000001   0.000294   0.023242  -0.000046
    22  H   -0.001422   0.000103   0.000001   0.000226  -0.000360  -0.000597
    23  H   -0.000138  -0.000031  -0.000055   0.000064  -0.000003  -0.003292
    24  H    0.000454  -0.000683   0.002932  -0.000004   0.000000  -0.000092
    25  H   -0.000191   0.000063  -0.000028  -0.005023   0.021820   0.000111
    26  H    0.000654  -0.006246   0.046050  -0.000093  -0.000012  -0.000009
    27  H   -0.000019   0.000198   0.000440  -0.000004  -0.000002   0.000002
    28  H    0.000091  -0.000124   0.000350   0.000032  -0.000031  -0.000003
               7          8          9         10         11         12
     1  B   -0.022190   0.362856  -0.012636   0.000095  -0.005857   0.010003
     2  C   -0.001605  -0.027564  -0.002099  -0.000002   0.000033  -0.001361
     3  N   -0.000133  -0.001090  -0.000037   0.000000  -0.000012   0.000006
     4  C   -0.003663  -0.026889  -0.001931   0.000237   0.002624  -0.011419
     5  N   -0.000225  -0.000326  -0.000034   0.000413  -0.011938  -0.006779
     6  C    0.846420  -0.026867  -0.001934   0.000300   0.002889  -0.008381
     7  N    6.284017  -0.000716  -0.000034   0.000480  -0.015070  -0.005500
     8  C   -0.000716   4.949619   0.898468   0.000001   0.000000  -0.000011
     9  N   -0.000034   0.898468   6.172355  -0.000000   0.000000  -0.000000
    10  C    0.000480   0.000001  -0.000000   4.526414   0.434106  -0.053305
    11  C   -0.015070   0.000000   0.000000   0.434106   4.649244   0.258439
    12  N   -0.005500  -0.000011  -0.000000  -0.053305   0.258439   6.442002
    13  C    0.002343   0.000024  -0.000000  -0.006311  -0.024065   0.378808
    14  C   -0.003061   0.000021  -0.000000   0.000286   0.004225  -0.041882
    15  N    0.000030  -0.000009  -0.000000  -0.000091   0.002974  -0.076043
    16  C    0.000389   0.000122  -0.000000  -0.005927  -0.024793   0.429429
    17  C   -0.000001   0.000001   0.000000   0.000006  -0.000068   0.003812
    18  H   -0.000006  -0.000000   0.000000   0.398332  -0.017959   0.004895
    19  H   -0.000018  -0.000000   0.000000   0.392972  -0.020318  -0.002962
    20  H   -0.000003  -0.000000   0.000000   0.395917  -0.019761  -0.003927
    21  H   -0.000376  -0.000028   0.000000  -0.020926   0.385855  -0.017886
    22  H    0.028492  -0.000035   0.000000  -0.020007   0.385311  -0.017383
    23  H    0.014135  -0.000006   0.000000  -0.001116  -0.001124  -0.029595
    24  H   -0.000042   0.000000  -0.000000   0.000013  -0.000104   0.003680
    25  H    0.000001  -0.000009  -0.000000  -0.000652  -0.000673  -0.020650
    26  H   -0.000001  -0.000015  -0.000000   0.000001   0.000008   0.000106
    27  H    0.000000   0.000000   0.000000  -0.000001   0.000004  -0.000229
    28  H   -0.000000  -0.000000   0.000000  -0.000003  -0.000006   0.000479
              13         14         15         16         17         18
     1  B    0.001110   0.003993   0.002278  -0.005105  -0.001366  -0.000013
     2  C   -0.006970   0.003242  -0.004931   0.003534   0.001646   0.000000
     3  N   -0.003570   0.010468  -0.007043   0.001140  -0.026259  -0.000000
     4  C   -0.000326  -0.000041  -0.003146   0.011895   0.000606   0.000009
     5  N    0.000248   0.000080  -0.001453  -0.001779   0.000177  -0.000004
     6  C    0.006816  -0.007098  -0.000066   0.000687   0.000039   0.000008
     7  N    0.002343  -0.003061   0.000030   0.000389  -0.000001  -0.000006
     8  C    0.000024   0.000021  -0.000009   0.000122   0.000001  -0.000000
     9  N   -0.000000  -0.000000  -0.000000  -0.000000   0.000000   0.000000
    10  C   -0.006311   0.000286  -0.000091  -0.005927   0.000006   0.398332
    11  C   -0.024065   0.004225   0.002974  -0.024793  -0.000068  -0.017959
    12  N    0.378808  -0.041882  -0.076043   0.429429   0.003812   0.004895
    13  C    4.823476   0.482441  -0.039246  -0.106454   0.005416  -0.000018
    14  C    0.482441   4.845042   0.371792  -0.105076  -0.032293   0.000008
    15  N   -0.039246   0.371792   6.365470   0.437404   0.291177   0.000004
    16  C   -0.106454  -0.105076   0.437404   4.759504  -0.032082   0.000001
    17  C    0.005416  -0.032293   0.291177  -0.032082   4.529844  -0.000000
    18  H   -0.000018   0.000008   0.000004   0.000001  -0.000000   0.586007
    19  H   -0.000909   0.000070  -0.000266   0.004110   0.000006  -0.015472
    20  H    0.005266  -0.000716   0.000037  -0.000663  -0.000001  -0.015269
    21  H    0.005319  -0.000668   0.000725  -0.008860  -0.000009  -0.003759
    22  H   -0.009999   0.001507  -0.000206   0.004035   0.000009  -0.003654
    23  H    0.432443  -0.040125   0.003414   0.005132  -0.000087  -0.000048
    24  H   -0.039581   0.437855  -0.031105   0.004845  -0.001860  -0.000000
    25  H    0.002968   0.002374  -0.021769   0.410908  -0.002499  -0.000029
    26  H    0.000480  -0.003877  -0.022383  -0.000176   0.394367  -0.000000
    27  H    0.000929  -0.005308  -0.021386   0.001945   0.402234   0.000000
    28  H   -0.000596   0.005639  -0.016971  -0.004700   0.398343   0.000000
              19         20         21         22         23         24
     1  B   -0.000007   0.000004  -0.000896  -0.001422  -0.000138   0.000454
     2  C    0.000000   0.000000   0.000086   0.000103  -0.000031  -0.000683
     3  N   -0.000000  -0.000000  -0.000001   0.000001  -0.000055   0.002932
     4  C    0.000010  -0.000014   0.000294   0.000226   0.000064  -0.000004
     5  N   -0.000002  -0.000015   0.023242  -0.000360  -0.000003   0.000000
     6  C   -0.000014   0.000005  -0.000046  -0.000597  -0.003292  -0.000092
     7  N   -0.000018  -0.000003  -0.000376   0.028492   0.014135  -0.000042
     8  C   -0.000000  -0.000000  -0.000028  -0.000035  -0.000006   0.000000
     9  N    0.000000   0.000000   0.000000   0.000000   0.000000  -0.000000
    10  C    0.392972   0.395917  -0.020926  -0.020007  -0.001116   0.000013
    11  C   -0.020318  -0.019761   0.385855   0.385311  -0.001124  -0.000104
    12  N   -0.002962  -0.003927  -0.017886  -0.017383  -0.029595   0.003680
    13  C   -0.000909   0.005266   0.005319  -0.009999   0.432443  -0.039581
    14  C    0.000070  -0.000716  -0.000668   0.001507  -0.040125   0.437855
    15  N   -0.000266   0.000037   0.000725  -0.000206   0.003414  -0.031105
    16  C    0.004110  -0.000663  -0.008860   0.004035   0.005132   0.004845
    17  C    0.000006  -0.000001  -0.000009   0.000009  -0.000087  -0.001860
    18  H   -0.015472  -0.015269  -0.003759  -0.003654  -0.000048  -0.000000
    19  H    0.628000  -0.024121  -0.008034   0.005851  -0.000036  -0.000000
    20  H   -0.024121   0.617182   0.005815  -0.007926   0.001090   0.000003
    21  H   -0.008034   0.005815   0.566334  -0.014098   0.000209   0.000008
    22  H    0.005851  -0.007926  -0.014098   0.554950   0.001489  -0.000007
    23  H   -0.000036   0.001090   0.000209   0.001489   0.532412  -0.002985
    24  H   -0.000000   0.000003   0.000008  -0.000007  -0.002985   0.549040
    25  H    0.000715  -0.000039   0.001624   0.000154  -0.000139  -0.000154
    26  H   -0.000000  -0.000000  -0.000002  -0.000001  -0.000008   0.000368
    27  H   -0.000000   0.000000   0.000001   0.000000   0.000006   0.000432
    28  H    0.000001   0.000000   0.000000   0.000000   0.000006   0.000129
              25         26         27         28
     1  B   -0.000191   0.000654  -0.000019   0.000091
     2  C    0.000063  -0.006246   0.000198  -0.000124
     3  N   -0.000028   0.046050   0.000440   0.000350
     4  C   -0.005023  -0.000093  -0.000004   0.000032
     5  N    0.021820  -0.000012  -0.000002  -0.000031
     6  C    0.000111  -0.000009   0.000002  -0.000003
     7  N    0.000001  -0.000001   0.000000  -0.000000
     8  C   -0.000009  -0.000015   0.000000  -0.000000
     9  N   -0.000000  -0.000000   0.000000   0.000000
    10  C   -0.000652   0.000001  -0.000001  -0.000003
    11  C   -0.000673   0.000008   0.000004  -0.000006
    12  N   -0.020650   0.000106  -0.000229   0.000479
    13  C    0.002968   0.000480   0.000929  -0.000596
    14  C    0.002374  -0.003877  -0.005308   0.005639
    15  N   -0.021769  -0.022383  -0.021386  -0.016971
    16  C    0.410908  -0.000176   0.001945  -0.004700
    17  C   -0.002499   0.394367   0.402234   0.398343
    18  H   -0.000029  -0.000000   0.000000   0.000000
    19  H    0.000715  -0.000000  -0.000000   0.000001
    20  H   -0.000039  -0.000000   0.000000   0.000000
    21  H    0.001624  -0.000002   0.000001   0.000000
    22  H    0.000154  -0.000001   0.000000   0.000000
    23  H   -0.000139  -0.000008   0.000006   0.000006
    24  H   -0.000154   0.000368   0.000432   0.000129
    25  H    0.499057  -0.000045   0.000025   0.001423
    26  H   -0.000045   0.504830  -0.014880  -0.010037
    27  H    0.000025  -0.014880   0.582698  -0.018520
    28  H    0.001423  -0.010037  -0.018520   0.575183
 Mulliken charges:
               1
     1  B   -0.021367
     2  C   -0.069005
     3  N   -0.122710
     4  C   -0.092417
     5  N   -0.135665
     6  C   -0.078965
     7  N   -0.123660
     8  C   -0.127549
     9  N   -0.052118
    10  C   -0.041231
    11  C    0.016037
    12  N   -0.234345
    13  C    0.089959
    14  C    0.071102
    15  N   -0.229191
    16  C    0.220535
    17  C    0.068842
    18  H    0.066964
    19  H    0.040424
    20  H    0.047132
    21  H    0.086079
    22  H    0.093568
    23  H    0.088390
    24  H    0.076859
    25  H    0.110658
    26  H    0.110925
    27  H    0.071434
    28  H    0.069315
 Sum of Mulliken charges =  -0.00000
 Mulliken charges with hydrogens summed into heavy atoms:
               1
     1  B   -0.021367
     2  C   -0.069005
     3  N   -0.122710
     4  C   -0.092417
     5  N   -0.135665
     6  C   -0.078965
     7  N   -0.123660
     8  C   -0.127549
     9  N   -0.052118
    10  C    0.113290
    11  C    0.195683
    12  N   -0.234345
    13  C    0.178349
    14  C    0.147960
    15  N   -0.229191
    16  C    0.331193
    17  C    0.320516
 Electronic spatial extent (au):  <R**2>=           3588.8443
 Charge=             -0.0000 electrons
 Dipole moment (field-independent basis, Debye):
    X=             11.8103    Y=              2.9907    Z=              0.3992  Tot=             12.1897
 Quadrupole moment (field-independent basis, Debye-Ang):
   XX=           -118.6625   YY=            -93.2016   ZZ=           -101.9402
   XY=             -1.7178   XZ=              1.4458   YZ=              1.0112
 Traceless Quadrupole moment (field-independent basis, Debye-Ang):
   XX=            -14.0611   YY=             11.3999   ZZ=              2.6612
   XY=             -1.7178   XZ=              1.4458   YZ=              1.0112
 Octapole moment (field-independent basis, Debye-Ang**2):
  XXX=            181.4267  YYY=             18.7343  ZZZ=            -12.3150  XYY=             53.4819
  XXY=             18.8919  XXZ=             -3.2664  XZZ=             25.8000  YZZ=             23.1399
  YYZ=             18.0631  XYZ=             -2.3095
 Hexadecapole moment (field-independent basis, Debye-Ang**3):
 XXXX=          -3438.8082 YYYY=          -1427.9995 ZZZZ=           -740.8132 XXXY=           -160.0934
 XXXZ=             56.7950 YYYX=             41.3687 YYYZ=              1.3739 ZZZX=             -0.2140
 ZZZY=              0.2713 XXYY=           -693.6187 XXZZ=           -544.4586 YYZZ=           -375.4166
 XXYZ=             15.4391 YYXZ=             -7.4109 ZZXY=              0.7603
 N-N= 1.118374825646D+03 E-N=-3.953944629157D+03  KE= 7.332383124326D+02
   1 Symmetry operations used in ECPInt.
 ECPInt:  NShTT=    9180 NPrTT=   33924 LenC2=    8790 LenP2D=   23589.
 LDataN:  DoStor=T MaxTD1= 5 Len=  102
 Calling FoFJK, ICntrl=      2127 FMM=F ISym2X=0 I1Cent= 0 IOpClX= 0 NMat=1 NMatS=1 NMatT=0.
 ***** Axes restored to original set *****
 -------------------------------------------------------------------
 Center     Atomic                   Forces (Hartrees/Bohr)
 Number     Number              X              Y              Z
 -------------------------------------------------------------------
      1        5           0.001753175    0.000778862   -0.000356595
      2        6           0.002654746   -0.002626325   -0.001374160
      3        7           0.002802758   -0.010100559   -0.004044083
      4        6           0.002351298    0.001570538    0.006642284
      5        7          -0.000523110    0.002384723    0.011279262
      6        6           0.002796221    0.003029481   -0.004170352
      7        7          -0.000662425    0.007927572   -0.008850450
      8        6          -0.004655893   -0.000949743   -0.000308822
      9        7           0.016591551    0.003947294    0.001534518
     10        6           0.009132319   -0.001027553    0.000222513
     11        6          -0.014493447    0.001830402    0.000538198
     12        7           0.002846089    0.005949472    0.005972695
     13        6          -0.003508020   -0.006862133   -0.000306403
     14        6          -0.004511761    0.004271519   -0.000440533
     15        7          -0.000443999   -0.005984101    0.007604286
     16        6          -0.003546622   -0.003435028   -0.014439743
     17        6          -0.000194764    0.000691272   -0.001578519
     18        1          -0.002123847    0.006202226    0.001365409
     19        1          -0.004686235   -0.002388167    0.004645100
     20        1          -0.004164306    0.000121450   -0.005635297
     21        1           0.002433071    0.000521160    0.000489168
     22        1           0.002304452    0.000123557    0.000377908
     23        1          -0.000046437    0.003514737   -0.005334711
     24        1           0.001649768   -0.004618130   -0.005090976
     25        1          -0.000178948    0.000267331    0.006261234
     26        1           0.001644750   -0.001528390    0.000434543
     27        1          -0.004339776   -0.003357207   -0.000548776
     28        1          -0.000880609   -0.000254261    0.005112301
 -------------------------------------------------------------------
 Cartesian Forces:  Max     0.016591551 RMS     0.004850432

 GradGradGradGradGradGradGradGradGradGradGradGradGradGradGradGradGradGrad
 Berny optimization.
 FormGI is forming the generalized inverse of G from B-inverse, IUseBI=4.
 Internal  Forces:  Max     0.124391978 RMS     0.020190070
 Search for a local minimum.
 Step number   1 out of a maximum of  135
 All quantities printed in internal units (Hartrees-Bohrs-Radians)
 Mixed Optimization -- RFO/linear search
 Second derivative matrix not updated -- first step.
 ITU=  0
     Eigenvalues ---    0.00230   0.00230   0.00230   0.00469   0.00907
     Eigenvalues ---    0.01000   0.01677   0.01822   0.02285   0.02322
     Eigenvalues ---    0.02480   0.02507   0.02609   0.03497   0.04542
     Eigenvalues ---    0.04740   0.04868   0.04945   0.04945   0.04954
     Eigenvalues ---    0.04954   0.05001   0.05001   0.05372   0.05696
     Eigenvalues ---    0.05835   0.06651   0.07225   0.09287   0.10741
     Eigenvalues ---    0.12591   0.13652   0.14876   0.15955   0.15965
     Eigenvalues ---    0.15990   0.16000   0.16000   0.16000   0.16000
     Eigenvalues ---    0.16008   0.16702   0.21980   0.22818   0.23526
     Eigenvalues ---    0.24739   0.24927   0.25000   0.25000   0.25000
     Eigenvalues ---    0.25000   0.25550   0.25674   0.25745   0.26663
     Eigenvalues ---    0.30132   0.34306   0.34336   0.34369   0.34827
     Eigenvalues ---    0.34845   0.34847   0.34940   0.35035   0.36397
     Eigenvalues ---    0.36507   0.36556   0.37048   0.37947   0.45389
     Eigenvalues ---    0.47364   0.51627   0.56867   0.57912   1.31751
     Eigenvalues ---    1.32242   1.32517   1.34703
 RFO step:  Lambda=-1.71038144D-01 EMin= 2.30000000D-03
 Linear search not attempted -- first point.
 Maximum step size (   0.300) exceeded in Quadratic search.
    -- Step size scaled by   0.467
 Iteration  1 RMS(Cart)=  0.30241778 RMS(Int)=  0.02256515
 Iteration  2 RMS(Cart)=  0.32264516 RMS(Int)=  0.01282564
 Iteration  3 RMS(Cart)=  0.24105831 RMS(Int)=  0.00385239
 Iteration  4 RMS(Cart)=  0.00980365 RMS(Int)=  0.00046730
 Iteration  5 RMS(Cart)=  0.00002810 RMS(Int)=  0.00046720
 Iteration  6 RMS(Cart)=  0.00000003 RMS(Int)=  0.00046720
 Iteration  1 RMS(Cart)=  0.30683522 RMS(Int)=  0.01921049
 Iteration  2 RMS(Cart)=  0.32799243 RMS(Int)=  0.01015985
 Iteration  3 RMS(Cart)=  0.14579518 RMS(Int)=  0.00147205
 Iteration  4 RMS(Cart)=  0.00393490 RMS(Int)=  0.00037843
 Iteration  5 RMS(Cart)=  0.00000572 RMS(Int)=  0.00037843
 Iteration  6 RMS(Cart)=  0.00000001 RMS(Int)=  0.00037843
 ITry= 2 IFail=0 DXMaxC= 2.94D+00 DCOld= 3.27D+00 DXMaxT= 3.00D-01 DXLimC= 3.00D+00 Rises=F
 Variable       Old X    -DE/DX   Delta X   Delta X   Delta X     New X
                                 (Linear)    (Quad)   (Total)
    R1        2.97350   0.02174   0.00000   0.02373   0.02136   2.99486
    R2        2.97830   0.01476   0.00000   0.01617   0.01455   2.99285
    R3        2.97524   0.01396   0.00000   0.01524   0.01372   2.98896
    R4        2.95157   0.01237   0.00000   0.01320   0.01188   2.96345
    R5        2.17877   0.02111   0.00000   0.00658   0.00592   2.18468
    R6        4.02587   0.01992   0.00000   0.04519   0.04067   4.06654
    R7        2.18089   0.00928   0.00000   0.00291   0.00262   2.18351
    R8        2.17953   0.01001   0.00000   0.00313   0.00282   2.18235
    R9        2.17282   0.01712   0.00000   0.00527   0.00474   2.17756
   R10        2.87701   0.00256   0.00000   0.00253   0.00228   2.87929
   R11        2.05772   0.00648   0.00000   0.00582   0.00524   2.06295
   R12        2.05956   0.00678   0.00000   0.00610   0.00549   2.06505
   R13        2.05924   0.00678   0.00000   0.00610   0.00549   2.06473
   R14        2.75774   0.00675   0.00000   0.00583   0.00524   2.76299
   R15        2.06711   0.00156   0.00000   0.00141   0.00127   2.06839
   R16        2.06767   0.00097   0.00000   0.00088   0.00079   2.06847
   R17        2.58366   0.00693   0.00000   0.00489   0.00438   2.58804
   R18        2.51606   0.00264   0.00000   0.00153   0.00138   2.51744
   R19        2.56660   0.00319   0.00000   0.00231   0.00207   2.56867
   R20        2.03296   0.00638   0.00000   0.00556   0.00500   2.03797
   R21        2.58824   0.00637   0.00000   0.00431   0.00389   2.59213
   R22        2.03221   0.00703   0.00000   0.00612   0.00551   2.03772
   R23        2.51421   0.00071   0.00000   0.00023   0.00023   2.51444
   R24        2.74443   0.00376   0.00000   0.00319   0.00287   2.74730
   R25        2.03465   0.00626   0.00000   0.00546   0.00492   2.03956
   R26        2.06817   0.02178   0.00000   0.01979   0.01781   2.08597
   R27        2.05928   0.00526   0.00000   0.00473   0.00426   2.06354
   R28        2.05618   0.00514   0.00000   0.00461   0.00415   2.06033
    A1        1.84937   0.01726   0.00000   0.01989   0.01780   1.86717
    A2        1.87332   0.01451   0.00000   0.01718   0.01482   1.88814
    A3        1.96516  -0.01280   0.00000  -0.01683  -0.01468   1.95047
    A4        1.82453   0.01109   0.00000   0.01920   0.01585   1.84038
    A5        1.96935  -0.01348   0.00000  -0.01802  -0.01519   1.95416
    A6        1.97166  -0.01219   0.00000  -0.01562  -0.01414   1.95752
    A7        2.13048   0.08670   0.00000   0.12237   0.11013   2.24061
    A8        1.90564   0.00154   0.00000   0.00206   0.00185   1.90749
    A9        1.92827   0.00183   0.00000   0.00264   0.00238   1.93065
   A10        1.92793   0.00174   0.00000   0.00251   0.00226   1.93018
   A11        1.90139  -0.00188   0.00000  -0.00275  -0.00248   1.89891
   A12        1.90085  -0.00189   0.00000  -0.00279  -0.00251   1.89834
   A13        1.89937  -0.00145   0.00000  -0.00183  -0.00165   1.89771
   A14        1.92462   0.00597   0.00000   0.00750   0.00675   1.93137
   A15        1.94511  -0.00046   0.00000   0.00006   0.00006   1.94517
   A16        1.94390  -0.00033   0.00000   0.00021   0.00019   1.94409
   A17        1.87300  -0.00231   0.00000  -0.00281  -0.00253   1.87047
   A18        1.86832  -0.00256   0.00000  -0.00327  -0.00295   1.86537
   A19        1.90595  -0.00049   0.00000  -0.00198  -0.00179   1.90416
   A20        2.18652   0.00357   0.00000   0.00412   0.00370   2.19022
   A21        2.18607   0.00178   0.00000   0.00214   0.00192   2.18798
   A22        1.90882  -0.00523   0.00000  -0.00595  -0.00536   1.90346
   A23        1.86431   0.00119   0.00000   0.00172   0.00153   1.86584
   A24        2.12493  -0.00021   0.00000  -0.00024  -0.00022   2.12471
   A25        2.29240  -0.00082   0.00000  -0.00110  -0.00099   2.29141
   A26        1.86410   0.00135   0.00000   0.00154   0.00140   1.86550
   A27        2.29304  -0.00088   0.00000  -0.00101  -0.00093   2.29212
   A28        2.12562  -0.00037   0.00000  -0.00029  -0.00028   2.12534
   A29        1.90730  -0.00451   0.00000  -0.00522  -0.00473   1.90257
   A30        2.17075   0.00105   0.00000   0.00194   0.00166   2.17240
   A31        2.19878   0.00448   0.00000   0.00579   0.00513   2.20391
   A32        1.88015   0.00716   0.00000   0.00782   0.00703   1.88719
   A33        2.19403  -0.00298   0.00000  -0.00288  -0.00264   2.19138
   A34        2.20765  -0.00382   0.00000  -0.00408  -0.00373   2.20392
   A35        1.87895   0.07788   0.00000   0.11464   0.10298   1.98194
   A36        1.91100  -0.03165   0.00000  -0.04809  -0.04270   1.86830
   A37        1.90515  -0.00549   0.00000  -0.00222  -0.00301   1.90214
   A38        1.91947  -0.02544   0.00000  -0.03878  -0.03410   1.88537
   A39        1.92391  -0.01786   0.00000  -0.01964  -0.01921   1.90470
   A40        1.92470   0.00402   0.00000  -0.00347  -0.00388   1.92082
   A41        2.33569   0.12439   0.00000   0.13803   0.12423   2.45992
   A42        3.04320   0.08031   0.00000   0.17296   0.15528   3.19849
   A43        3.02007   0.01285   0.00000   0.02722   0.02450   3.04456
   A44        3.01926   0.01222   0.00000   0.02587   0.02328   3.04255
   A45        3.14247  -0.00012   0.00000  -0.00025  -0.00022   3.14225
   A46        3.16140  -0.00044   0.00000  -0.00074  -0.00083   3.16057
   A47        3.06837   0.00716   0.00000   0.01516   0.01364   3.08202
   A48        3.19356  -0.00637   0.00000  -0.01348  -0.01214   3.18143
   A49        3.14490  -0.00003   0.00000  -0.00007  -0.00006   3.14484
    D1        0.23021   0.02131   0.00000   0.03646   0.03488   0.26509
    D2       -1.69205  -0.01908   0.00000  -0.03250  -0.03042  -1.72247
    D3        2.39521   0.00099   0.00000   0.00461   0.00325   2.39846
    D4        0.76837   0.06894   0.00000   0.18570   0.16713   0.93550
    D5       -3.13809   0.00012   0.00000   0.00026   0.00023  -3.13785
    D6        1.06682  -0.00060   0.00000  -0.00118  -0.00107   1.06575
    D7       -1.06642   0.00059   0.00000   0.00117   0.00106  -1.06537
    D8        1.05434   0.00035   0.00000   0.00073   0.00066   1.05500
    D9       -1.02394  -0.00037   0.00000  -0.00071  -0.00064  -1.02458
   D10        3.12600   0.00082   0.00000   0.00164   0.00148   3.12748
   D11       -1.04820  -0.00017   0.00000  -0.00034  -0.00031  -1.04851
   D12       -3.12649  -0.00090   0.00000  -0.00178  -0.00161  -3.12809
   D13        1.02346   0.00030   0.00000   0.00058   0.00052   1.02398
   D14        1.55584  -0.00120   0.00000  -0.00315  -0.00284   1.55300
   D15       -1.65675   0.00105   0.00000   0.00273   0.00247  -1.65428
   D16       -2.60568   0.00033   0.00000  -0.00038  -0.00036  -2.60603
   D17        0.46492   0.00259   0.00000   0.00551   0.00496   0.46988
   D18       -0.56145  -0.00269   0.00000  -0.00576  -0.00518  -0.56663
   D19        2.50915  -0.00044   0.00000   0.00013   0.00013   2.50928
   D20        3.07795   0.00483   0.00000   0.01168   0.01050   3.08844
   D21       -0.01026   0.00209   0.00000   0.00513   0.00461  -0.00565
   D22       -0.00220   0.00269   0.00000   0.00637   0.00572   0.00351
   D23       -3.09041  -0.00005   0.00000  -0.00019  -0.00017  -3.09058
   D24       -3.08628  -0.00633   0.00000  -0.01500  -0.01352  -3.09980
   D25        0.00223   0.00067   0.00000   0.00169   0.00153   0.00376
   D26       -0.00611  -0.00412   0.00000  -0.00961  -0.00867  -0.01478
   D27        3.08240   0.00289   0.00000   0.00709   0.00638   3.08878
   D28        0.00936  -0.00026   0.00000  -0.00073  -0.00065   0.00871
   D29       -3.10059  -0.00418   0.00000  -0.00989  -0.00888  -3.10946
   D30        3.09048   0.00288   0.00000   0.00675   0.00606   3.09654
   D31       -0.01947  -0.00104   0.00000  -0.00241  -0.00216  -0.02163
   D32       -0.01342  -0.00221   0.00000  -0.00510  -0.00459  -0.01801
   D33       -3.04015  -0.01164   0.00000  -0.02799  -0.02513  -3.06529
   D34        3.10025   0.00122   0.00000   0.00296   0.00265   3.10290
   D35        0.07351  -0.00820   0.00000  -0.01993  -0.01789   0.05562
   D36        0.01210   0.00392   0.00000   0.00910   0.00822   0.02032
   D37       -3.07588  -0.00319   0.00000  -0.00781  -0.00701  -3.08289
   D38        3.03654   0.01324   0.00000   0.03212   0.02892   3.06546
   D39       -0.05144   0.00613   0.00000   0.01521   0.01369  -0.03775
   D40        1.05321  -0.00583   0.00000  -0.01133  -0.01100   1.04222
   D41       -1.03313  -0.00304   0.00000  -0.00478  -0.00379  -1.03692
   D42        3.14158   0.01490   0.00000   0.03045   0.02778  -3.11383
   D43       -1.95430  -0.01620   0.00000  -0.03729  -0.03441  -1.98871
   D44        2.24255  -0.01341   0.00000  -0.03073  -0.02720   2.21534
   D45        0.13407   0.00453   0.00000   0.00450   0.00437   0.13843
   D46        0.11551   0.02991   0.00000   0.07036   0.06367   0.17918
   D47        2.19645   0.02360   0.00000   0.05849   0.05206   2.24852
   D48       -1.96089   0.00015   0.00000   0.01570   0.01436  -1.94653
         Item               Value     Threshold  Converged?
 Maximum Force            0.124392     0.000015     NO 
 RMS     Force            0.020190     0.000010     NO 
 Maximum Displacement     2.938566     0.000060     NO 
 RMS     Displacement     0.773553     0.000040     NO 
 Predicted change in Energy=-6.662002D-02
 GradGradGradGradGradGradGradGradGradGradGradGradGradGradGradGradGradGrad

                          Input orientation:                          
 ---------------------------------------------------------------------
 Center     Atomic      Atomic             Coordinates (Angstroms)
 Number     Number       Type             X           Y           Z
 ---------------------------------------------------------------------
      1          5           0        3.013520    0.189597    0.102777
      2          6           0        2.230791   -1.134960   -0.277371
      3          7           0        1.716540   -2.137106   -0.537714
      4          6           0        2.529164    0.613978    1.549690
      5          7           0        2.057242    0.880398    2.570181
      6          6           0        2.525334    1.345116   -0.860646
      7          7           0        2.055665    2.144655   -1.548993
      8          6           0        4.567039   -0.015269    0.040872
      9          7           0        5.708684   -0.165790   -0.001846
     10          6           0       -4.088911    1.988360    0.237538
     11          6           0       -2.572555    1.850205    0.181922
     12          7           0       -2.191297    0.476618   -0.143144
     13          6           0       -2.019963   -0.023156   -1.406667
     14          6           0       -1.603782   -1.309887   -1.269696
     15          7           0       -1.542157   -1.567566    0.076170
     16          6           0       -1.886459   -0.469370    0.743908
     17          6           0       -1.052221   -2.807989    0.654847
     18          1           0       -4.348391    3.021212    0.477590
     19          1           0       -4.507154    1.332664    1.005197
     20          1           0       -4.534004    1.728957   -0.725994
     21          1           0       -2.112851    2.093847    1.144905
     22          1           0       -2.141449    2.491584   -0.593254
     23          1           0       -2.165911    0.588072   -2.283106
     24          1           0       -1.330498   -2.051792   -2.002944
     25          1           0       -1.884181   -0.346954    1.816232
     26          1           0       -0.005291   -3.035528    0.389049
     27          1           0       -1.681480   -3.612190    0.267926
     28          1           0       -1.141426   -2.752645    1.740061
 ---------------------------------------------------------------------
                    Distance matrix (angstroms):
                    1          2          3          4          5
     1  B    0.000000
     2  C    1.584811   0.000000
     3  N    2.739695   1.156084   0.000000
     4  C    1.583747   2.546754   3.547685   0.000000
     5  N    2.734914   3.492898   4.345160   1.155462   0.000000
     6  C    1.581688   2.564711   3.589471   2.518789   3.493659
     7  N    2.732779   3.521869   4.412615   3.488411   4.308822
     8  C    1.568191   2.610180   3.600319   2.612550   3.674059
     9  N    2.720507   3.620904   4.484468   3.622796   4.587250
    10  C    7.327908   7.068160   7.164060   6.885462   6.666634
    11  C    5.828217   5.674001   5.900243   5.424627   5.298993
    12  N    5.218523   4.708510   4.717885   5.016703   5.057199
    13  C    5.259243   4.536555   4.380105   5.462650   5.766744
    14  C    5.044959   3.964752   3.499233   5.360171   5.739782
    15  N    4.882880   3.814089   3.364571   4.848303   5.016801
    16  C    4.985487   4.293923   4.171991   4.617429   4.550816
    17  C    5.081393   3.800820   3.088418   5.033579   5.190517
    18  H    7.896598   7.818527   8.026361   7.365116   7.070655
    19  H    7.660385   7.289311   7.290696   7.093853   6.763506
    20  H    7.747361   7.359737   7.351952   7.504015   7.418176
    21  H    5.567035   5.596007   5.949488   4.888984   4.570946
    22  H    5.688348   5.689295   6.025938   5.471036   5.498386
    23  H    5.716443   5.130575   5.054346   6.060917   6.440098
    24  H    5.322441   4.062138   3.382103   5.884260   6.402186
    25  H    5.216444   4.683708   4.659496   4.524604   4.196384
    26  H    4.426804   3.009375   2.151919   4.592324   4.934151
    27  H    6.043500   4.662605   3.790973   6.101880   6.281861
    28  H    5.347996   4.249563   3.706092   4.984337   4.911168
                    6          7          8          9         10
     6  C    0.000000
     7  N    1.154847   0.000000
     8  C    2.613799   3.674226   0.000000
     9  N    3.626857   4.590900   1.152317   0.000000
    10  C    6.735577   6.400933   8.886995  10.034468   0.000000
    11  C    5.227861   4.950070   7.380629   8.525076   1.523652
    12  N    4.849299   4.774458   6.778711   7.927317   2.455854
    13  C    4.778078   4.618485   6.744185   7.856580   3.321168
    14  C    4.926049   5.040180   6.439926   7.509231   4.396141
    15  N    5.089776   5.419046   6.303423   7.385510   4.376826
    16  C    5.032978   5.256507   6.507542   7.637703   3.338809
    17  C    5.687170   6.248564   6.304946   7.288505   5.692152
    18  H    7.200574   6.774018   9.428458  10.560852   1.091667
    19  H    7.275810   7.088992   9.224306  10.374143   1.092779
    20  H    7.071047   6.653861   9.298354  10.441605   1.092607
    21  H    5.108384   4.963486   7.091417   8.221765   2.176983
    22  H    4.812977   4.318514   7.189592   8.308790   2.176249
    23  H    4.960270   4.558901   7.148252   8.232964   3.465888
    24  H    5.264149   5.411316   6.565482   7.557214   5.380653
    25  H    5.428867   5.749369   6.699265   7.809598   3.578660
    26  H    5.211126   5.902359   5.490846   6.406068   6.475983
    27  H    6.598928   7.099910   7.213417   8.158737   6.096131
    28  H    6.082799   6.709904   6.554925   7.526624   5.781209
                   11         12         13         14         15
    11  C    0.000000
    12  N    1.462110   0.000000
    13  C    2.517629   1.369533   0.000000
    14  C    3.609972   2.192235   1.359281   0.000000
    15  N    3.571283   2.155961   2.193697   1.371696   0.000000
    16  C    2.483342   1.332172   2.200433   2.200223   1.330584
    17  C    4.922788   3.566922   3.597452   2.500479   1.453807
    18  H    2.147620   3.393128   4.270852   5.417038   5.393790
    19  H    2.165249   2.722993   3.720411   4.537376   4.250368
    20  H    2.164785   2.719621   3.139047   4.256335   4.523458
    21  H    1.094543   2.068974   3.316753   4.204147   3.856661
    22  H    1.094585   2.065229   2.645811   3.898441   4.157400
    23  H    2.799054   2.143012   1.078445   2.223788   3.256074
    24  H    4.641327   3.254641   2.224021   1.078313   2.145224
    25  H    2.823533   2.147498   3.241969   3.244814   2.152834
    26  H    5.523054   4.170974   4.044488   2.878271   2.148200
    27  H    5.535266   4.140924   3.974922   2.769643   2.058318
    28  H    5.065783   3.882890   4.257210   3.369565   2.081714
                   16         17         18         19         20
    16  C    0.000000
    17  C    2.484557   0.000000
    18  H    4.279742   6.698936   0.000000
    19  H    3.191181   5.404101   1.776167   0.000000
    20  H    3.742024   5.883316   1.775666   1.776173   0.000000
    21  H    2.604253   5.039156   2.510568   2.516268   3.081458
    22  H    3.258876   5.552445   2.509543   3.081348   2.514664
    23  H    3.218554   4.626565   4.278415   4.104725   3.055173
    24  H    3.218439   2.777251   6.402819   5.531238   5.117334
    25  H    1.079291   2.845640   4.382789   3.218522   4.218279
    26  H    3.201544   1.103850   7.453486   6.302976   6.667299
    27  H    3.185262   1.091977   7.152510   5.742785   6.136173
    28  H    2.600142   1.090280   6.724276   5.343959   6.138059
                   21         22         23         24         25
    21  H    0.000000
    22  H    1.783314   0.000000
    23  H    3.744520   2.545497   0.000000
    24  H    5.263777   4.825674   2.783035   0.000000
    25  H    2.541747   3.732172   4.214050   4.218903   0.000000
    26  H    5.596750   6.006417   4.993912   2.906121   3.577081
    27  H    5.789131   6.181364   4.938080   2.777568   3.619407
    28  H    4.978591   5.826349   5.328774   3.812746   2.518896
                   26         27         28
    26  H    0.000000
    27  H    1.776745   0.000000
    28  H    1.787752   1.788200   0.000000
 Stoichiometry    C10H11BN6
 Framework group  C1[X(C10H11BN6)]
 Deg. of freedom    78
 Full point group                 C1      NOp   1
 Largest Abelian subgroup         C1      NOp   1
 Largest concise Abelian subgroup C1      NOp   1
                         Standard orientation:                         
 ---------------------------------------------------------------------
 Center     Atomic      Atomic             Coordinates (Angstroms)
 Number     Number       Type             X           Y           Z
 ---------------------------------------------------------------------
      1          5           0       -2.701272   -0.325317    0.000998
      2          6           0       -1.966478    1.034156   -0.350477
      3          7           0       -1.489204    2.059167   -0.591502
      4          6           0       -2.242523   -0.735171    1.460390
      5          7           0       -1.790294   -0.985660    2.493752
      6          6           0       -2.133922   -1.453547   -0.951339
      7          7           0       -1.609011   -2.228312   -1.628008
      8          6           0       -4.259730   -0.188491   -0.107232
      9          7           0       -5.405086   -0.087984   -0.183994
     10          6           0        4.466130   -1.811445    0.344510
     11          6           0        2.947528   -1.739665    0.243453
     12          7           0        2.516176   -0.382539   -0.088072
     13          6           0        2.361162    0.115461   -1.354401
     14          6           0        1.884838    1.382007   -1.225476
     15          7           0        1.771421    1.630097    0.118823
     16          6           0        2.143432    0.544784    0.792733
     17          6           0        1.210179    2.844969    0.686846
     18          1           0        4.763448   -2.833091    0.588596
     19          1           0        4.831806   -1.141825    1.126850
     20          1           0        4.928204   -1.528021   -0.604147
     21          1           0        2.470188   -2.007981    1.191175
     22          1           0        2.568604   -2.395508   -0.546739
     23          1           0        2.560195   -0.484449   -2.228207
     24          1           0        1.601394    2.114816   -1.963994
     25          1           0        2.114239    0.417101    1.864047
     26          1           0        0.162735    3.027672    0.390257
     27          1           0        1.814819    3.677896    0.322076
     28          1           0        1.268999    2.788242    1.774059
 ---------------------------------------------------------------------
 Rotational constants (GHZ):           0.6949932           0.2551857           0.2274462
 Standard basis: def2SVP (5D, 7F)
 There are   310 symmetry adapted cartesian basis functions of A   symmetry.
 There are   293 symmetry adapted basis functions of A   symmetry.
   293 basis functions,   502 primitive gaussians,   310 cartesian basis functions
    59 alpha electrons       59 beta electrons
       nuclear repulsion energy      1018.9948993996 Hartrees.
 NAtoms=   28 NActive=   28 NUniq=   28 SFac= 1.00D+00 NAtFMM=   60 NAOKFM=F Big=F
 Integral buffers will be    131072 words long.
 Raffenetti 2 integral format.
 Two-electron integral symmetry is turned on.
 Nuclear repulsion after empirical dispersion term =     1018.9771089544 Hartrees.
 Standard density basis: W06 (5D, 7F)
   954 Density fitting functions
 There are   954 symmetry adapted density basis functions of A   symmetry.
 One-electron integrals computed using PRISM.
   1 Symmetry operations used in ECPInt.
 ECPInt:  NShTT=    9180 NPrTT=   33924 LenC2=    8438 LenP2D=   21816.
 LDataN:  DoStor=T MaxTD1= 4 Len=   56
 NBasis=   293 RedAO= T EigKep=  1.02D-03  NBF=   293
 NBsUse=   293 1.00D-06 EigRej= -1.00D+00 NBFU=   293
 Initial guess from the checkpoint file:  "c1c2im_bcn4.chk"
 B after Tr=     0.000000    0.000000   -0.000000
         Rot=    0.999797    0.005646    0.019273    0.001379 Ang=   2.31 deg.
 ExpMin= 8.36D-02 ExpMax= 1.71D+03 ExpMxC= 2.58D+02 IAcc=3 IRadAn=         5 AccDes= 0.00D+00
 Harris functional with IExCor= 4639 and IRadAn=       5 diagonalized for initial guess.
 HarFok:  IExCor= 4639 AccDes= 0.00D+00 IRadAn=         5 IDoV= 1 UseB2=F ITyADJ=14
 ICtDFT=  3500011 ScaDFX=  1.000000  1.000000  1.000000  1.000000
 FoFCou: FMM=F IPFlag=           0 FMFlag=      100000 FMFlg1=           0
         NFxFlg=           0 DoJE=T BraDBF=F KetDBF=T FulRan=T
         wScrn=  0.000000 ICntrl=       500 IOpCl=  0 I1Cent=   200000004 NGrid=           0
         NMat0=    1 NMatS0=      1 NMatT0=    0 NMatD0=    1 NMtDS0=    0 NMtDT0=    0
 Petite list used in FoFCou.
 Requested convergence on RMS density matrix=1.00D-08 within 128 cycles.
 Requested convergence on MAX density matrix=1.00D-06.
 Requested convergence on             energy=1.00D-06.
 No special actions if energy rises.
 Integral accuracy reduced to 1.0D-05 until final iterations.
 Initial convergence to 1.0D-05 achieved.  Increase integral accuracy.
 SCF Done:  E(RwB97XD) =  -740.229061240     A.U. after   16 cycles
            NFock= 16  Conv=0.97D-08     -V/T= 2.0099
   1 Symmetry operations used in ECPInt.
 ECPInt:  NShTT=    9180 NPrTT=   33924 LenC2=    8438 LenP2D=   21816.
 LDataN:  DoStor=T MaxTD1= 5 Len=  102
 Calling FoFJK, ICntrl=      2127 FMM=F ISym2X=0 I1Cent= 0 IOpClX= 0 NMat=1 NMatS=1 NMatT=0.
 ***** Axes restored to original set *****
 -------------------------------------------------------------------
 Center     Atomic                   Forces (Hartrees/Bohr)
 Number     Number              X              Y              Z
 -------------------------------------------------------------------
      1        5          -0.003813860    0.008394697    0.002638864
      2        6           0.004946397   -0.006845723   -0.002229780
      3        7          -0.006573924   -0.002836818   -0.001765162
      4        6          -0.002298250   -0.003386286    0.004398714
      5        7          -0.003066037    0.002364673    0.006265089
      6        6          -0.002104681   -0.001079646   -0.005056931
      7        7          -0.003326607    0.006342259   -0.004548930
      8        6          -0.001338889   -0.001517546   -0.000480066
      9        7           0.011674237   -0.001543109   -0.000478478
     10        6           0.007494400    0.001125397   -0.000034018
     11        6          -0.009945794   -0.003450596   -0.000161494
     12        7           0.006298471    0.005526071    0.003784441
[...]
 046,-0.00026735,0.00038157,0.00014810,0.00009042,0.00004061,0.00129192
 ,0.00094051,-0.00000813,0.00000594,0.00001974,-0.00056632,0.00013935,0
 .00016822,-0.00016443,0.00015411,0.00062904,0.00137399,-0.00028453,0.0
 0124086,0.11135482,0.03212526,0.29312714,-0.00026357,0.00065872,-0.000
 49098,0.00009062,-0.00003699,0.00012217,-0.00017991,-0.00018322,-0.000
 04276,0.00018757,-0.00018942,0.00010763,-0.00051485,-0.00000380,0.0000
 6929,-0.00153934,0.00070409,0.00033305,-0.00050006,-0.00055282,0.00000
 227,0.00005470,-0.00011723,0.00010366,0.00007314,0.00001797,0.00000603
 ,-0.01560358,-0.01475139,0.02003878,-0.12962963,-0.08254247,0.10014305
 ,0.00331328,0.00450155,-0.00457306,0.00029116,0.00024805,0.00002928,0.
 00005321,0.00001167,0.00009361,-0.00028628,0.00072790,-0.00041515,0.00
 023055,0.00108916,0.00065658,-0.00009237,-0.00012594,0.00015651,0.0009
 2247,0.00012557,0.00008451,-0.00487765,0.00222073,-0.00054127,0.001163
 52,-0.00067328,-0.00030313,0.00813668,0.00841294,-0.00891742,0.1384984
 3,0.00027523,-0.00032467,0.00021876,-0.00004416,0.00000595,-0.00004030
 ,0.00012380,0.00011053,-0.00000107,-0.00003859,0.00005659,-0.00000343,
 0.00001216,0.00010004,-0.00008763,0.00020397,-0.00009711,0.00027627,-0
 .00098263,-0.00015029,0.00021330,-0.00003820,0.00006140,-0.00003959,-0
 .00004030,-0.00002312,-0.00000347,0.00577208,0.00751986,-0.00821662,-0
 .07573537,-0.12217954,0.09022486,-0.01440917,-0.03112106,0.02412751,-0
 .00024898,0.00157997,0.00174970,0.00010219,-0.00048920,0.00086038,0.00
 079247,-0.00229987,-0.00011228,-0.00198824,-0.00124469,-0.00410798,0.0
 0046081,0.00015353,-0.00045651,-0.00028886,0.00031569,-0.00018974,0.00
 301125,0.00005340,0.00025310,-0.00031530,0.00010072,0.00038412,0.00318
 202,0.00366047,-0.00332493,0.08065099,0.14473593,-0.00004006,-0.000009
 38,0.00019067,-0.00002689,0.00001867,-0.00005060,0.00002983,0.00003134
 ,-0.00000783,-0.00009248,0.00008124,0.00001729,-0.00012447,-0.00006238
 ,-0.00012792,0.00034648,0.00010205,-0.00067564,0.00030369,-0.00032611,
 -0.00002501,-0.00000217,0.00003733,-0.00004323,-0.00001509,-0.00001632
 ,-0.00000498,-0.00271045,-0.00269698,0.00306351,0.10004823,0.10295581,
 -0.17948485,-0.00592008,-0.01007944,0.00785448,-0.00036731,-0.00090011
 ,0.00128692,-0.00028162,-0.00031494,0.00049866,0.00028902,-0.00134869,
 -0.00036099,-0.00032158,-0.00018142,-0.00084971,0.00028361,0.00007195,
 -0.00017113,0.00062023,-0.00004759,0.00008938,-0.00106258,0.00003562,0
 .00123673,0.00005386,-0.00055428,0.00067821,0.01526687,0.01471095,-0.0
 1452717,-0.10643870,-0.10112488,0.18145443,-0.00020497,0.00020606,-0.0
 0050394,0.00006493,-0.00003548,0.00008727,-0.00011325,-0.00012437,0.00
 003120,0.00008952,-0.00004914,0.00003874,-0.00016592,0.00004927,0.0000
 6979,-0.00002419,-0.00018589,0.00001784,-0.00006572,0.00032834,0.00035
 035,0.00003646,-0.00004988,0.00008356,0.00005912,0.00001630,0.00000877
 ,0.00013412,0.00001270,0.00034364,-0.00142675,0.00011406,-0.00018589,-
 0.00187890,-0.00151970,0.00035878,-0.02865064,0.00616659,-0.00167088,0
 .00193816,0.00084064,-0.00337836,0.00538409,0.00179912,0.00025696,0.00
 336957,0.00009021,0.00055947,0.00101427,0.00016078,-0.00009504,-0.0000
 9427,-0.00000758,-0.00014788,-0.00004151,-0.00000388,-0.00007070,-0.00
 028062,0.00017391,-0.00001681,0.00003476,-0.00008323,-0.00004354,0.000
 21362,-0.00026532,0.00002810,0.02205771,-0.00000141,0.00014558,-0.0000
 8122,0.00003021,-0.00001612,0.00004610,-0.00005768,-0.00003085,-0.0000
 8439,0.00003315,-0.00003167,0.00000811,-0.00008806,-0.00006124,0.00001
 412,0.00002646,-0.00034099,0.00021763,-0.00020336,-0.00012608,-0.00012
 027,0.00000160,-0.00002695,0.00002187,0.00000715,-0.00000331,-0.000000
 71,0.00000741,-0.00012442,-0.00008037,0.00030148,0.00153938,0.00024587
 ,-0.00092163,0.01309330,-0.01579812,0.00778627,-0.17780734,0.15831533,
 -0.00067399,-0.00048088,0.01982676,0.00125229,-0.00485256,0.00033842,0
 .00034308,-0.00231205,-0.00389613,-0.00007221,0.00060900,0.00099121,0.
 00000025,-0.00003479,-0.00002866,-0.00004014,0.00001660,0.00008509,0.0
 0005421,0.00010157,-0.00003113,-0.00010852,-0.00010763,0.00011188,-0.0
 0028067,-0.00019368,-0.00006772,-0.00717547,0.17002099,-0.00016172,0.0
 0003923,-0.00009976,0.00002418,-0.00002526,0.00002484,0.00008462,-0.00
 001197,-0.00001713,0.00001991,-0.00001258,0.00000994,-0.00000163,-0.00
 002547,0.00003618,-0.00004646,0.00012289,-0.00004845,0.00047761,0.0001
 0092,-0.00014756,0.00002502,-0.00001107,0.00002525,0.00003582,0.000009
 20,-0.00000683,0.00007914,-0.00011446,-0.00007195,-0.00014076,0.001469
 30,0.00093185,-0.00098408,0.01795589,-0.01777372,-0.00469759,0.1488269
 1,-0.25560119,0.00004684,-0.00290550,0.00746731,0.00085233,-0.00205489
 ,0.00202205,0.00063779,-0.00447913,-0.00286939,0.00004385,0.00033968,0
 .00050074,0.00003565,0.00001404,0.00006121,-0.00005778,0.00001854,0.00
 004938,0.00014265,-0.00009963,-0.00003257,-0.00013977,-0.00006524,0.00
 019838,-0.00018806,-0.00064442,-0.00014389,0.00416554,-0.15943618,0.26
 570538,-0.00002742,-0.00029071,-0.00016815,0.00000410,0.00003660,-0.00
 003582,0.00015996,0.00002217,0.00045761,0.00004781,0.00007627,0.000035
 93,-0.00000934,0.00002099,0.00005631,0.00001894,0.00003440,0.00002136,
 -0.00014460,0.00003601,-0.00000662,0.00000662,0.00005424,0.00002241,0.
 00003238,0.00000977,0.00000884,-0.00005536,-0.00026297,-0.00013535,0.0
 0126293,0.00015788,0.00022826,0.00531872,0.00063373,0.00038989,0.00171
 012,-0.00028696,0.00165463,-0.03421596,0.03615322,0.03243426,-0.001917
 76,-0.00218077,-0.00227305,0.00298837,0.00117207,-0.00043800,-0.000877
 30,-0.00031366,0.00015747,0.00005518,-0.00002535,0.00003288,-0.0000267
 8,0.00000887,0.00001454,-0.00002214,0.00002434,0.00001840,-0.00004847,
 0.00025973,-0.00000118,0.00000872,0.00006311,0.00006665,-0.00301206,-0
 .00025316,-0.00025893,0.02752894,-0.00006653,-0.00007008,-0.00008481,0
 .00002364,-0.00014716,-0.00002423,0.00018434,-0.00003615,0.00016452,0.
 00001346,0.00000935,0.00001789,0.00004943,0.00005462,0.00002820,0.0000
 0463,0.00000727,-0.00000263,0.00000273,0.00006468,0.00006452,0.0000112
 7,0.00001037,0.00001065,0.00002050,0.00000082,0.00000401,-0.00005123,-
 0.00008739,-0.00004539,-0.00009717,0.00056683,-0.00090824,0.00153134,-
 0.00486630,0.00051049,0.00147432,-0.00274562,-0.01881702,0.03429878,-0
 .21939650,-0.15956892,-0.00242395,0.01178326,0.01144384,0.00069907,-0.
 00107270,0.00357614,-0.00032174,0.00100778,-0.00054973,0.00004505,0.00
 000019,0.00001041,0.00001856,0.00000128,-0.00000303,0.00000616,0.00002
 112,0.00002130,0.00009699,-0.00031299,-0.00005008,0.00002550,0.0000596
 0,0.00002727,-0.00055762,0.00046502,0.00030506,-0.03509740,0.21389510,
 -0.00007846,-0.00012458,-0.00004871,-0.00001141,0.00003842,0.00001202,
 0.00029631,0.00001730,0.00006618,0.00001249,0.00002561,0.00001097,-0.0
 0003803,-0.00002871,0.00002133,-0.00000437,0.00004341,0.00000389,0.000
 05191,0.00001742,-0.00004970,0.00001110,0.00002690,0.00001211,0.000029
 00,0.00000350,-0.00000496,0.00002143,0.00004016,-0.00000849,0.00017943
 ,-0.00028079,0.00065598,0.00003769,0.00306377,0.00160096,-0.00098791,0
 .00416039,0.00968588,0.02897753,-0.15102102,-0.20843039,0.00377333,-0.
 02239107,-0.01661484,-0.00046292,0.00430997,-0.00410447,0.00020606,-0.
 00125204,0.00131797,-0.00001604,0.00001247,0.00000185,-0.00000813,-0.0
 0000706,-0.00000445,-0.00000811,-0.00001450,0.00000145,-0.00004423,0.0
 0021589,0.00007177,-0.00000591,-0.00003609,-0.00000615,-0.00008404,-0.
 00046808,-0.00016283,-0.03193914,0.16395084,0.21614666,-0.00034473,-0.
 00007584,0.00072934,0.00011931,0.00000786,-0.00018637,-0.00015736,-0.0
 0016492,-0.00005670,-0.00085400,-0.00072988,-0.00051727,-0.00042881,0.
 00058148,-0.00016649,0.00011156,-0.00005217,-0.00008143,-0.00021506,0.
 00009787,-0.00008091,0.00007082,-0.00000165,-0.00014665,0.00008550,0.0
 0002108,0.00001499,0.00015238,0.00030775,-0.00025269,-0.00242621,-0.00
 018268,0.00038441,0.00128242,-0.00144432,-0.00123866,0.00317393,0.0002
 1215,-0.00036498,0.00297940,0.00168261,-0.00029763,0.00133194,-0.00000
 967,0.00520332,-0.02918392,0.00416580,-0.01784413,-0.00278212,-0.00098
 080,0.00035776,-0.00012515,-0.00004335,0.00006948,-0.00023272,0.000078
 78,0.00004788,-0.00006330,-0.00003442,0.00005740,0.00036874,-0.0001325
 0,-0.00018179,0.00019197,-0.00018136,0.00008066,0.00158071,-0.00000802
 ,0.00000831,0.00163079,0.00020220,0.00021749,0.02309086,-0.00015368,0.
 00014952,0.00032210,0.00007816,0.00000114,-0.00010153,-0.00011428,-0.0
 0014235,0.00007358,-0.00035315,-0.00036240,-0.00062248,0.00016548,-0.0
 0005752,0.00025080,0.00006955,-0.00004045,-0.00006266,-0.00009428,-0.0
 0001366,-0.00007808,0.00002987,-0.00002414,-0.00007751,0.00003766,0.00
 000142,0.00000836,-0.00002727,-0.00019291,-0.00009516,0.00001652,0.002
 32383,0.00097078,0.00032896,0.00785643,0.02621839,0.00055828,-0.004465
 17,0.00222014,0.00112815,-0.00502269,-0.00061412,-0.00120221,0.0031650
 3,-0.02736241,0.00367537,-0.06343474,-0.02782782,-0.00070167,0.0018975
 2,-0.00143026,0.00003798,-0.00003633,0.00000848,0.00003471,0.00005836,
 0.00004414,-0.00007528,0.00006223,-0.00006240,-0.00020122,-0.00071654,
 -0.00011763,-0.00009272,-0.00013457,-0.00023514,0.00002836,0.00086841,
 0.00082361,0.00010839,0.00074287,-0.00090005,-0.00351484,0.05808135,0.
 00014611,0.00007904,0.00019607,0.00007550,0.00001038,-0.00009273,-0.00
 016786,-0.00006126,0.00000278,-0.00037929,-0.00049503,-0.00057353,-0.0
 0071657,-0.00000683,-0.00053764,0.00004216,-0.00002786,-0.00004330,-0.
 00011910,-0.00001359,-0.00001921,-0.00001581,-0.00001420,-0.00003715,-
 0.00001545,-0.00000281,-0.00001399,-0.00009759,-0.00010908,-0.00002329
 ,0.00054950,-0.00035365,0.00034037,-0.00034747,-0.00401560,-0.00958359
 ,-0.00069084,0.00304057,0.00170361,-0.00010177,-0.00184770,0.00242274,
 -0.00037964,0.00207146,-0.00489948,-0.01215248,-0.02618873,-0.36918468
 ,0.00022712,0.00016047,0.00085313,0.00002549,-0.00006549,0.00002975,-0
 .00004590,0.00009584,0.00002902,0.00002320,0.00000869,-0.00001041,0.00
 004514,0.00026181,0.00023111,0.00003872,-0.00005841,0.00003779,-0.0001
 4509,-0.00021102,-0.00013635,-0.00022963,-0.00000573,0.00002321,0.0142
 9089,0.02794166,0.37913836,0.00004792,-0.00088322,-0.00012832,0.000008
 47,0.00008812,0.00036955,-0.00182977,-0.00035372,-0.00028624,0.0000752
 6,0.00017707,-0.00005295,-0.00032642,-0.00006098,0.00012955,0.00005324
 ,0.00014938,0.00008799,-0.00020785,0.00005852,-0.00011815,-0.00000308,
 0.00016673,0.00004391,0.00008085,0.00001798,0.00000651,-0.00000036,-0.
 00005749,-0.00001903,-0.00003567,0.00018606,0.00005797,-0.00015128,-0.
 00059615,0.00003532,0.00023798,-0.00009016,0.00014537,0.00013851,-0.00
 019511,0.00038649,-0.00014903,0.00420282,-0.00085392,-0.00029600,-0.00
 070588,-0.00038483,-0.28272469,0.07711101,0.07918682,0.00001379,-0.000
 01320,-0.00000195,-0.00001708,0.00000828,0.00001085,-0.00001144,0.0000
 1286,-0.00000392,0.00005453,-0.00003074,-0.00000966,0.00005947,-0.0000
 5213,-0.00000538,0.00006145,-0.00000480,-0.00001018,-0.00010051,0.0002
 3211,-0.00021852,0.00015140,0.00011697,0.00002945,0.29337230,-0.000120
 38,-0.00088209,-0.00005035,-0.00047285,-0.00013812,0.00022373,0.001139
 06,-0.00028323,-0.00088356,0.00006092,0.00020017,-0.00001839,-0.000286
 90,0.00001167,0.00008066,0.00006487,0.00011161,0.00009124,-0.00024138,
 0.00005952,-0.00010565,0.00000447,0.00015002,0.00002516,0.00008319,0.0
 0000774,0.00000788,-0.00004886,-0.00001964,-0.00004739,-0.00051821,0.0
 0022187,0.00039814,-0.00072250,-0.00239271,0.00155469,0.00001413,-0.00
 136935,-0.00103049,0.00014966,0.00162316,-0.00195658,0.03099935,-0.023
 11711,-0.00844880,0.00234686,0.00181759,0.00302094,0.06737532,-0.06896
 948,-0.02432241,0.00002805,-0.00002368,-0.00000161,0.00000273,0.000014
 62,0.00001196,-0.00001094,0.00001901,-0.00000088,0.00006584,-0.0000695
 7,-0.00000566,0.00010816,-0.00022291,-0.00010427,-0.00008787,0.0000284
 3,0.00000008,0.00022521,0.00017479,0.00019177,0.00043283,0.00001406,0.
 00005260,-0.08377835,0.08520464,-0.00002092,0.00029047,0.00027765,-0.0
 0012772,-0.00093611,-0.00026082,-0.00022237,0.00062848,-0.00087716,-0.
 00005995,-0.00008374,0.00004057,0.00015310,0.00006899,-0.00008342,-0.0
 0002459,-0.00009945,-0.00006393,0.00008694,-0.00003146,0.00002113,0.00
 001268,-0.00007841,-0.00003643,-0.00003758,0.00000171,-0.00001469,0.00
 003962,0.00002831,0.00003387,0.00028048,-0.00017391,-0.00020862,-0.000
 28275,0.00178255,-0.00136270,-0.00009554,0.00068124,0.00075095,-0.0006
 0610,0.00023972,0.00115941,-0.01445102,0.01030049,0.00477596,-0.000499
 90,-0.00219656,-0.00109700,0.08257762,-0.03019602,-0.08065731,-0.00002
 349,0.00001703,0.00000450,-0.00000809,-0.00000783,-0.00000678,-0.00000
 035,-0.00001159,-0.00000157,-0.00000747,0.00004274,0.00000093,-0.00004
 801,0.00012222,0.00006450,0.00012384,-0.00000263,-0.00000105,-0.000126
 48,0.00000583,-0.00020698,0.00020248,0.00012994,-0.00003083,-0.0828890
 4,0.02414900,0.07896169,0.00006951,0.00024991,-0.00002940,0.00006214,-
 0.00000613,0.00001720,-0.00075459,-0.00035082,0.00075986,-0.00002132,-
 0.00007154,-0.00001349,0.00005267,-0.00001221,-0.00002159,-0.00001786,
 -0.00002333,-0.00002319,0.00004775,-0.00001884,0.00003794,-0.00000505,
 -0.00004130,-0.00000445,-0.00002985,-0.00000369,-0.00000035,0.00001290
 ,0.00007131,0.00000497,-0.00015813,-0.00007443,-0.00005640,-0.00047137
 ,0.00065280,0.00046878,0.00004164,-0.00027177,0.00011758,0.00044252,-0
 .00023555,-0.00002500,0.00908645,0.00971030,0.00413931,0.00021608,0.00
 136410,-0.00065728,-0.20001412,-0.13004664,-0.06562858,-0.00002408,0.0
 0000351,0.00000210,0.00000236,-0.00000237,0.00000687,0.00000244,0.0000
 0049,-0.00000177,-0.00001362,0.00000324,0.00000291,-0.00001217,0.00000
 149,-0.00000810,-0.00005270,-0.00001749,-0.00002006,-0.00008829,-0.000
 30819,0.00012145,0.00011898,0.00003988,0.00000698,-0.01293706,-0.01776
 222,-0.01141406,0.20258748,0.00006989,-0.00017791,0.00000415,-0.000019
 14,0.00006186,0.00001677,0.00035114,0.00020871,-0.00036164,0.00002260,
 0.00002572,-0.00001916,-0.00014438,-0.00000285,-0.00001413,0.00001781,
 0.00001351,0.00002696,-0.00009873,0.00000468,-0.00001478,-0.00001125,0
 .00002891,0.00000528,-0.00000131,0.00000256,-0.00000260,-0.00008582,-0
 .00022808,-0.00005308,0.00039259,0.00038437,0.00030083,0.00099738,-0.0
 0202858,0.00117526,0.00037647,-0.00110489,-0.00077081,0.00003679,0.001
 56517,-0.00197309,-0.01809347,-0.03037193,-0.00895279,-0.00211193,0.00
 077786,0.00359042,-0.12218976,-0.15249845,-0.05266192,0.00008263,-0.00
 002246,-0.00001493,0.00000417,0.00001256,-0.00001290,-0.00001196,0.000
 01335,0.00000866,0.00002118,-0.00000718,0.00000376,0.00003746,-0.00004
 254,-0.00000398,0.00011927,0.00002847,0.00001288,-0.00036648,-0.000040
 13,0.00027949,-0.00027732,-0.00005324,0.00010290,0.00652476,0.00823019
 ,0.00417068,0.13421021,0.17481801,-0.00001648,0.00002460,-0.00003211,-
 0.00003878,0.00002298,0.00001684,0.00019978,0.00000826,-0.00020354,0.0
 0000548,0.00003333,0.00000351,0.00002072,-0.00007191,0.00003725,-0.000
 01197,-0.00000793,0.00000556,0.00002169,-0.00001761,-0.00001132,-0.000
 00150,-0.00000222,0.00000554,0.00000045,-0.00000407,0.00000097,0.00002
 555,0.00013225,0.00006630,-0.00033677,-0.00019131,-0.00014385,-0.00003
 802,0.00155596,-0.00101723,0.00004480,0.00042310,0.00073654,0.00026687
 ,0.00015879,0.00112758,0.01074827,0.01459125,0.00449451,0.00071851,-0.
 00157648,-0.00116322,-0.06586453,-0.05840869,-0.07922142,-0.00004205,0
 .00001643,0.00000462,0.00000041,-0.00000851,-0.00000657,0.00000786,-0.
 00000712,-0.00000269,-0.00000789,0.00000559,-0.00000810,-0.00000735,0.
 00001308,0.00000801,-0.00016192,-0.00002220,-0.00003059,0.00002164,-0.
 00003846,-0.00017475,-0.00023672,0.00013799,0.00004457,0.00692918,0.00
 747793,0.00413709,0.07014107,0.05478459,0.07623601,-0.00000725,-0.0000
 3777,0.00013694,0.00005465,-0.00024077,-0.00011704,-0.00053528,-0.0000
 0666,-0.00013046,-0.00003960,-0.00002934,0.00002730,-0.00001049,0.0001
 4024,-0.00009518,0.00001085,-0.00000718,-0.00001644,-0.00003109,0.0000
 1529,-0.00001343,0.00000772,-0.00000200,-0.00001710,0.00000143,0.00000
 953,-0.00000842,0.00001408,0.00001335,-0.00002578,-0.00007588,-0.00000
 343,0.00004917,-0.00028417,-0.00015760,-0.00009109,0.00047986,0.000224
 76,-0.00029828,0.00040744,0.00095884,0.00034069,-0.00239474,0.00030472
 ,-0.00826562,0.00072522,-0.00018699,-0.00011023,-0.04757368,0.00067961
 ,0.00728157,-0.00000727,-0.00000336,0.00000439,-0.00000943,0.00000415,
 0.00001123,-0.00000479,0.00000161,-0.00000034,0.00002699,-0.00000233,-
 0.00000343,0.00001029,-0.00002294,-0.00000026,-0.00002699,0.00006305,0
 .00002774,-0.00022760,-0.00001624,-0.00002803,0.00037269,0.00007634,0.
 00010422,0.00443507,0.00094981,0.02746867,0.00185729,0.00014720,-0.022
 38833,0.04282470,-0.00002714,-0.00011656,0.00005890,-0.00001440,0.0000
 8309,0.00001467,0.00027936,0.00011673,-0.00008539,-0.00000611,0.000028
 25,-0.00000274,0.00005163,0.00011000,-0.00001963,0.00002273,0.00001249
 ,0.00000451,-0.00007454,-0.00000119,-0.00003316,0.00000441,0.00002025,
 -0.00001007,0.00001641,0.00000240,0.00000417,-0.00000440,-0.00003049,-
 0.00001030,0.00001921,0.00009782,-0.00003140,-0.00005478,0.00006507,0.
 00035164,0.00011381,-0.00072007,0.00168456,0.00105164,-0.00471395,-0.0
 0149564,0.00005290,-0.00263831,0.04097273,0.00004929,0.00176425,0.0017
 8399,0.00060019,-0.05296161,-0.03507344,0.00000804,-0.00000613,-0.0000
 0454,0.00000480,0.00000285,0.00000152,-0.00001568,0.00000907,-0.000006
 39,0.00001284,-0.00004490,-0.00000256,0.00000945,0.00000959,0.00000140
 ,0.00003986,-0.00036620,-0.00015246,-0.00001951,-0.00008993,0.00012669
 ,0.00004334,-0.00052548,-0.00034843,-0.00223075,-0.00040119,-0.0088416
 8,0.00293929,0.00040230,-0.01902963,-0.00287188,0.05989187,-0.00001058
 ,0.00005348,-0.00006925,0.00002247,0.00007148,0.00000160,0.00020106,0.
 00000293,0.00006436,0.00002306,0.00001893,-0.00000698,0.00000151,-0.00
 004241,0.00001368,-0.00001112,-0.00000097,-0.00000040,0.00004813,0.000
 00535,0.00001887,-0.00000075,-0.00000698,0.00000969,0.00000005,-0.0000
 0257,0.00000134,0.00001069,0.00002825,-0.00000101,0.00001139,-0.000087
 63,-0.00000880,-0.00002961,0.00026242,-0.00013487,-0.00004053,0.000099
 69,-0.00038157,-0.00028742,0.00129983,0.00163086,0.00033141,-0.0003086
 4,-0.01232838,0.00015450,-0.00171517,0.00113439,0.00385173,-0.02040762
 ,-0.33607723,-0.00001117,0.00000463,0.00000456,-0.00000347,-0.00000175
 ,0.00000465,0.00000742,-0.00000590,0.00000186,-0.00001232,0.00002145,0
 .00000434,-0.00001334,0.00000407,-0.00000146,-0.00001977,0.00010644,0.
 00011076,-0.00000870,-0.00004271,0.00018448,-0.00001201,0.00043730,0.0
 0013367,-0.00243687,-0.00030974,-0.00531895,0.00207669,0.00037316,-0.0
 0490948,-0.00384245,0.02014267,0.35591928\\0.00000016,-0.00000021,0.00
 000002,-0.00000008,0.00000009,-0.00000105,-0.00000006,0.00000055,-0.00
 000177,0.,-0.00000126,0.00000052,0.00000019,-0.00000193,0.00000063,0.0
 0000012,0.00000072,0.00000121,-0.00000006,0.00000147,0.00000144,0.0000
 0006,-0.00000025,0.00000040,-0.00000005,-0.00000053,0.00000057,0.00000
 020,-0.00000020,0.00000186,-0.00000027,-0.00000005,0.00000153,-0.00000
 012,0.00000014,0.00000039,-0.00000020,0.00000097,-0.00000020,0.0000001
 4,0.00000127,-0.00000120,0.00000010,-0.00000013,-0.00000155,-0.0000000
 8,-0.00000049,-0.00000040,-0.00000010,-0.00000019,-0.00000275,0.000000
 14,-0.00000031,0.00000280,0.00000010,-0.00000061,0.00000145,0.00000004
 ,0.00000078,0.00000188,0.00000017,-0.00000089,0.00000159,0.00000011,0.
 00000045,0.00000200,0.00000002,0.00000189,0.00000057,-0.00000034,0.000
 00185,-0.00000167,0.00000013,-0.00000138,-0.00000030,-0.00000014,-0.00
 000032,-0.00000264,-0.00000008,-0.00000008,-0.00000297,-0.00000009,-0.
 00000136,-0.00000239\\\@


 THE MOST INCOMPREHENSIBLE THING ABOUT THE WORLD
 IS THAT IT IS COMPREHENSIBLE. -- A. EINSTEIN
 Job cpu time:       0 days  1 hours  1 minutes 38.1 seconds.
 Elapsed time:       0 days  0 hours  5 minutes  8.4 seconds.
 File lengths (MBytes):  RWF=    278 Int=      0 D2E=      0 Chk=      8 Scr=      1
 Normal termination of Gaussian 16 at Mon Mar  9 12:57:51 2020.
