 Entering Gaussian System, Link 0=g16
 Input=tos.gjf
 Output=tos.log
 Initial command:
 /opt/g16/l1.exe "/scratch/mtmjea001/volumes/tos/Gau-26423.inp" -scrdir="/scratch/mtmjea001/volumes/tos/"
 Entering Link 1 = /opt/g16/l1.exe PID=     26424.
  
 Copyright (c) 1988-2019, Gaussian, Inc.  All Rights Reserved.
  
 This is part of the Gaussian(R) 16 program.  It is based on
 the Gaussian(R) 09 system (copyright 2009, Gaussian, Inc.),
 the Gaussian(R) 03 system (copyright 2003, Gaussian, Inc.),
 the Gaussian(R) 98 system (copyright 1998, Gaussian, Inc.),
 the Gaussian(R) 94 system (copyright 1995, Gaussian, Inc.),
 the Gaussian 92(TM) system (copyright 1992, Gaussian, Inc.),
 the Gaussian 90(TM) system (copyright 1990, Gaussian, Inc.),
 the Gaussian 88(TM) system (copyright 1988, Gaussian, Inc.),
 the Gaussian 86(TM) system (copyright 1986, Carnegie Mellon
 University), and the Gaussian 82(TM) system (copyright 1983,
 Carnegie Mellon University). Gaussian is a federally registered
 trademark of Gaussian, Inc.
  
 This software contains proprietary and confidential information,
 including trade secrets, belonging to Gaussian, Inc.
  
 This software is provided under written license and may be
 used, copied, transmitted, or stored only in accord with that
 written license.
  
 The following legend is applicable only to US Government
 contracts under FAR:
  
                    RESTRICTED RIGHTS LEGEND
  
 Use, reproduction and disclosure by the US Government is
 subject to restrictions as set forth in subparagraphs (a)
 and (c) of the Commercial Computer Software - Restricted
 Rights clause in FAR 52.227-19.
  
 Gaussian, Inc.
 340 Quinnipiac St., Bldg. 40, Wallingford CT 06492
  
  
 ---------------------------------------------------------------
 Warning -- This program may not be used in any manner that
 competes with the business of Gaussian, Inc. or will provide
 assistance to any competitor of Gaussian, Inc.  The licensee
 of this program is prohibited from giving any competitor of
 Gaussian, Inc. access to this program.  By using this program,
 the user acknowledges that Gaussian, Inc. is engaged in the
 business of creating and licensing software in the field of
 computational chemistry and represents and warrants to the
 licensee that it is not a competitor of Gaussian, Inc. and that
 it will not use this program in any manner prohibited above.
 ---------------------------------------------------------------
  

 Cite this work as:
 Gaussian 16, Revision C.01,
 M. J. Frisch, G. W. Trucks, H. B. Schlegel, G. E. Scuseria, 
 M. A. Robb, J. R. Cheeseman, G. Scalmani, V. Barone, 
 G. A. Petersson, H. Nakatsuji, X. Li, M. Caricato, A. V. Marenich, 
 J. Bloino, B. G. Janesko, R. Gomperts, B. Mennucci, H. P. Hratchian, 
 J. V. Ortiz, A. F. Izmaylov, J. L. Sonnenberg, D. Williams-Young, 
 F. Ding, F. Lipparini, F. Egidi, J. Goings, B. Peng, A. Petrone, 
 T. Henderson, D. Ranasinghe, V. G. Zakrzewski, J. Gao, N. Rega, 
 G. Zheng, W. Liang, M. Hada, M. Ehara, K. Toyota, R. Fukuda, 
 J. Hasegawa, M. Ishida, T. Nakajima, Y. Honda, O. Kitao, H. Nakai, 
 T. Vreven, K. Throssell, J. A. Montgomery, Jr., J. E. Peralta, 
 F. Ogliaro, M. J. Bearpark, J. J. Heyd, E. N. Brothers, K. N. Kudin, 
 V. N. Staroverov, T. A. Keith, R. Kobayashi, J. Normand, 
 K. Raghavachari, A. P. Rendell, J. C. Burant, S. S. Iyengar, 
 J. Tomasi, M. Cossi, J. M. Millam, M. Klene, C. Adamo, R. Cammi, 
 J. W. Ochterski, R. L. Martin, K. Morokuma, O. Farkas, 
 J. B. Foresman, and D. J. Fox, Gaussian, Inc., Wallingford CT, 2019.
 
 ******************************************
 Gaussian 16:  ES64L-G16RevC.01  3-Jul-2019
                10-Mar-2020 
 ******************************************
 %chk=tos.chk
 %mem=52Gb
 %nprocs=12
 Will use up to   12 processors via shared memory.
 Default route: test
 ----------------------------------------------------------
 #p pbepbe/def2tzvp/w06 opt scrf(cpcm,solvent=generic,read)
 ----------------------------------------------------------
 1/18=20,19=15,26=3,38=1,40=2/1,3;
 2/9=110,12=2,17=6,18=5,40=1/2;
 3/5=44,7=101,11=2,25=1,30=1,70=2103,71=1,72=-2,74=1009,82=40/1,2,3;
 4//1;
 5/5=2,38=5/2;
 6/7=2,8=2,9=2,10=2,28=1/1;
 7//1,2,3,16;
 1/18=20,19=15,26=3/3(2);
 2/9=110/2;
 99//99;
 2/9=110/2;
 3/5=44,7=101,11=2,25=1,30=1,70=2105,71=1,72=-2,74=1009,82=40/1,2,3;
 4/5=5,16=3,69=1/1;
 5/5=2,38=5/2;
 7//1,2,3,16;
 1/18=20,19=15,26=3/3(-5);
 2/9=110/2;
 6/7=2,8=2,9=2,10=2,19=2,28=1/1;
 99/9=1/99;
 Leave Link    1 at Tue Mar 10 14:55:03 2020, MaxMem=  6979321856 cpu:               0.6 elap:               0.1
 (Enter /opt/g16/l101.exe)
 ---
 tos
 ---
 Symbolic Z-matrix:
 Charge = -1 Multiplicity = 1
 C                     1.11785   0.0423    0.16137 
 C                     2.61319   0.06619   0.05544 
 C                     3.30905   1.28209  -0.01648 
 C                     4.69701   1.29357  -0.1684 
 C                     5.39147   0.08423  -0.24287 
 C                     4.71441  -1.1345   -0.16402 
 C                     3.32668  -1.14065  -0.01142 
 S                     7.18139   0.09912  -0.53726 
 O                     7.70835   0.13134   0.82309 
 O                     7.40396  -1.14396  -1.27112 
 O                     7.37466   1.3181   -1.31934 
 H                     0.70663   1.05084   0.27225 
 H                     0.80598  -0.5438    1.03159 
 H                     0.68715  -0.39903  -0.74365 
 H                     2.77873   2.22927   0.03004 
 H                     5.24232   2.23101  -0.24197 
 H                     5.27174  -2.06501  -0.23446 
 H                     2.80586  -2.09307   0.03877 
 
 ITRead=  0  0  0  0  0  0  0  0  0  0  0  0  0  0  0  0  0  0
 MicOpt= -1 -1 -1 -1 -1 -1 -1 -1 -1 -1 -1 -1 -1 -1 -1 -1 -1 -1
 NAtoms=     18 NQM=       18 NQMF=       0 NMMI=      0 NMMIF=      0
                NMic=       0 NMicF=      0.
                    Isotopes and Nuclear Properties:
 (Nuclear quadrupole moments (NQMom) in fm**2, nuclear magnetic moments (NMagM)
  in nuclear magnetons)

  Atom         1           2           3           4           5           6           7           8           9          10
 IAtWgt=          12          12          12          12          12          12          12          32          16          16
 AtmWgt=  12.0000000  12.0000000  12.0000000  12.0000000  12.0000000  12.0000000  12.0000000  31.9720718  15.9949146  15.9949146
 NucSpn=           0           0           0           0           0           0           0           0           0           0
 AtZEff=  -0.0000000  -0.0000000  -0.0000000  -0.0000000  -0.0000000  -0.0000000  -0.0000000  -0.0000000  -0.0000000  -0.0000000
 NQMom=    0.0000000   0.0000000   0.0000000   0.0000000   0.0000000   0.0000000   0.0000000   0.0000000   0.0000000   0.0000000
 NMagM=    0.0000000   0.0000000   0.0000000   0.0000000   0.0000000   0.0000000   0.0000000   0.0000000   0.0000000   0.0000000
 AtZNuc=   6.0000000   6.0000000   6.0000000   6.0000000   6.0000000   6.0000000   6.0000000  16.0000000   8.0000000   8.0000000

  Atom        11          12          13          14          15          16          17          18
 IAtWgt=          16           1           1           1           1           1           1           1
 AtmWgt=  15.9949146   1.0078250   1.0078250   1.0078250   1.0078250   1.0078250   1.0078250   1.0078250
 NucSpn=           0           1           1           1           1           1           1           1
 AtZEff=  -0.0000000  -0.0000000  -0.0000000  -0.0000000  -0.0000000  -0.0000000  -0.0000000  -0.0000000
 NQMom=    0.0000000   0.0000000   0.0000000   0.0000000   0.0000000   0.0000000   0.0000000   0.0000000
 NMagM=    0.0000000   2.7928460   2.7928460   2.7928460   2.7928460   2.7928460   2.7928460   2.7928460
 AtZNuc=   8.0000000   1.0000000   1.0000000   1.0000000   1.0000000   1.0000000   1.0000000   1.0000000
 Leave Link  101 at Tue Mar 10 14:55:04 2020, MaxMem=  6979321856 cpu:               3.5 elap:               0.3
 (Enter /opt/g16/l103.exe)

 GradGradGradGradGradGradGradGradGradGradGradGradGradGradGradGradGradGrad
 Berny optimization.
 Initialization pass.
                           ----------------------------
                           !    Initial Parameters    !
                           ! (Angstroms and Degrees)  !
 --------------------------                            --------------------------
 ! Name  Definition              Value          Derivative Info.                !
 --------------------------------------------------------------------------------
 ! R1    R(1,2)                  1.4993         estimate D2E/DX2                !
 ! R2    R(1,12)                 1.0948         estimate D2E/DX2                !
 ! R3    R(1,13)                 1.0946         estimate D2E/DX2                !
 ! R4    R(1,14)                 1.0951         estimate D2E/DX2                !
 ! R5    R(2,3)                  1.4028         estimate D2E/DX2                !
 ! R6    R(2,7)                  1.4036         estimate D2E/DX2                !
 ! R7    R(3,4)                  1.3963         estimate D2E/DX2                !
 ! R8    R(3,15)                 1.0865         estimate D2E/DX2                !
 ! R9    R(4,5)                  1.3965         estimate D2E/DX2                !
 ! R10   R(4,16)                 1.087          estimate D2E/DX2                !
 ! R11   R(5,6)                  1.3964         estimate D2E/DX2                !
 ! R12   R(5,8)                  1.814          estimate D2E/DX2                !
 ! R13   R(6,7)                  1.3961         estimate D2E/DX2                !
 ! R14   R(6,17)                 1.0869         estimate D2E/DX2                !
 ! R15   R(7,18)                 1.0867         estimate D2E/DX2                !
 ! R16   R(8,9)                  1.4592         estimate D2E/DX2                !
 ! R17   R(8,10)                 1.4606         estimate D2E/DX2                !
 ! R18   R(8,11)                 1.4611         estimate D2E/DX2                !
 ! A1    A(2,1,12)             111.5374         estimate D2E/DX2                !
 ! A2    A(2,1,13)             110.4191         estimate D2E/DX2                !
 ! A3    A(2,1,14)             109.8941         estimate D2E/DX2                !
 ! A4    A(12,1,13)            107.8026         estimate D2E/DX2                !
 ! A5    A(12,1,14)            107.8916         estimate D2E/DX2                !
 ! A6    A(13,1,14)            109.2187         estimate D2E/DX2                !
 ! A7    A(1,2,3)              120.8096         estimate D2E/DX2                !
 ! A8    A(1,2,7)              119.7799         estimate D2E/DX2                !
 ! A9    A(3,2,7)              119.3852         estimate D2E/DX2                !
 ! A10   A(2,3,4)              120.3844         estimate D2E/DX2                !
 ! A11   A(2,3,15)             120.7501         estimate D2E/DX2                !
 ! A12   A(4,3,15)             118.8594         estimate D2E/DX2                !
 ! A13   A(3,4,5)              119.537          estimate D2E/DX2                !
 ! A14   A(3,4,16)             120.8722         estimate D2E/DX2                !
 ! A15   A(5,4,16)             119.5864         estimate D2E/DX2                !
 ! A16   A(4,5,6)              120.7743         estimate D2E/DX2                !
 ! A17   A(4,5,8)              119.4859         estimate D2E/DX2                !
 ! A18   A(6,5,8)              119.6529         estimate D2E/DX2                !
 ! A19   A(5,6,7)              119.47           estimate D2E/DX2                !
 ! A20   A(5,6,17)             119.6625         estimate D2E/DX2                !
 ! A21   A(7,6,17)             120.8631         estimate D2E/DX2                !
 ! A22   A(2,7,6)              120.4449         estimate D2E/DX2                !
 ! A23   A(2,7,18)             120.5153         estimate D2E/DX2                !
 ! A24   A(6,7,18)             119.0327         estimate D2E/DX2                !
 ! A25   A(5,8,9)              101.8423         estimate D2E/DX2                !
 ! A26   A(5,8,10)             102.9976         estimate D2E/DX2                !
 ! A27   A(5,8,11)             102.9575         estimate D2E/DX2                !
 ! A28   A(9,8,10)             115.605          estimate D2E/DX2                !
 ! A29   A(9,8,11)             115.6457         estimate D2E/DX2                !
 ! A30   A(10,8,11)            114.8939         estimate D2E/DX2                !
 ! D1    D(12,1,2,3)            -5.6663         estimate D2E/DX2                !
 ! D2    D(12,1,2,7)           176.1726         estimate D2E/DX2                !
 ! D3    D(13,1,2,3)          -125.5109         estimate D2E/DX2                !
 ! D4    D(13,1,2,7)            56.3279         estimate D2E/DX2                !
 ! D5    D(14,1,2,3)           113.9414         estimate D2E/DX2                !
 ! D6    D(14,1,2,7)           -64.2197         estimate D2E/DX2                !
 ! D7    D(1,2,3,4)           -177.4469         estimate D2E/DX2                !
 ! D8    D(1,2,3,15)             1.6463         estimate D2E/DX2                !
 ! D9    D(7,2,3,4)              0.7214         estimate D2E/DX2                !
 ! D10   D(7,2,3,15)           179.8147         estimate D2E/DX2                !
 ! D11   D(1,2,7,6)            177.4315         estimate D2E/DX2                !
 ! D12   D(1,2,7,18)            -1.5836         estimate D2E/DX2                !
 ! D13   D(3,2,7,6)             -0.756          estimate D2E/DX2                !
 ! D14   D(3,2,7,18)          -179.7711         estimate D2E/DX2                !
 ! D15   D(2,3,4,5)             -0.2721         estimate D2E/DX2                !
 ! D16   D(2,3,4,16)           178.9526         estimate D2E/DX2                !
 ! D17   D(15,3,4,5)          -179.3824         estimate D2E/DX2                !
 ! D18   D(15,3,4,16)           -0.1576         estimate D2E/DX2                !
 ! D19   D(3,4,5,6)             -0.152          estimate D2E/DX2                !
 ! D20   D(3,4,5,8)            176.4459         estimate D2E/DX2                !
 ! D21   D(16,4,5,6)          -179.3869         estimate D2E/DX2                !
 ! D22   D(16,4,5,8)            -2.789          estimate D2E/DX2                !
 ! D23   D(4,5,6,7)              0.1182         estimate D2E/DX2                !
 ! D24   D(4,5,6,17)           179.3627         estimate D2E/DX2                !
 ! D25   D(8,5,6,7)           -176.474          estimate D2E/DX2                !
 ! D26   D(8,5,6,17)             2.7705         estimate D2E/DX2                !
 ! D27   D(4,5,8,9)             90.6547         estimate D2E/DX2                !
 ! D28   D(4,5,8,10)          -149.2412         estimate D2E/DX2                !
 ! D29   D(4,5,8,11)           -29.4788         estimate D2E/DX2                !
 ! D30   D(6,5,8,9)            -92.7088         estimate D2E/DX2                !
 ! D31   D(6,5,8,10)            27.3953         estimate D2E/DX2                !
 ! D32   D(6,5,8,11)           147.1577         estimate D2E/DX2                !
 ! D33   D(5,6,7,2)              0.3399         estimate D2E/DX2                !
 ! D34   D(5,6,7,18)           179.3695         estimate D2E/DX2                !
 ! D35   D(17,6,7,2)          -178.8953         estimate D2E/DX2                !
 ! D36   D(17,6,7,18)            0.1343         estimate D2E/DX2                !
 --------------------------------------------------------------------------------
 Trust Radius=3.00D-01 FncErr=1.00D-07 GrdErr=1.00D-06 EigMax=2.50D+02 EigMin=1.00D-04
 Number of steps in this run=     94 maximum allowed number of steps=    108.
 GradGradGradGradGradGradGradGradGradGradGradGradGradGradGradGradGradGrad

 Leave Link  103 at Tue Mar 10 14:55:04 2020, MaxMem=  6979321856 cpu:               0.1 elap:               0.0
 (Enter /opt/g16/l202.exe)
                          Input orientation:                          
 ---------------------------------------------------------------------
 Center     Atomic      Atomic             Coordinates (Angstroms)
 Number     Number       Type             X           Y           Z
 ---------------------------------------------------------------------
      1          6           0        1.117850    0.042300    0.161370
      2          6           0        2.613190    0.066190    0.055440
      3          6           0        3.309050    1.282090   -0.016480
      4          6           0        4.697010    1.293570   -0.168400
      5          6           0        5.391470    0.084230   -0.242870
      6          6           0        4.714410   -1.134500   -0.164020
      7          6           0        3.326680   -1.140650   -0.011420
      8         16           0        7.181390    0.099120   -0.537260
      9          8           0        7.708350    0.131340    0.823090
     10          8           0        7.403960   -1.143960   -1.271120
     11          8           0        7.374660    1.318100   -1.319340
     12          1           0        0.706630    1.050840    0.272250
     13          1           0        0.805980   -0.543800    1.031590
     14          1           0        0.687150   -0.399030   -0.743650
     15          1           0        2.778730    2.229270    0.030040
     16          1           0        5.242320    2.231010   -0.241970
     17          1           0        5.271740   -2.065010   -0.234460
     18          1           0        2.805860   -2.093070    0.038770
 ---------------------------------------------------------------------
                    Distance matrix (angstroms):
                    1          2          3          4          5
     1  C    0.000000
     2  C    1.499278   0.000000
     3  C    2.523899   1.402785   0.000000
     4  C    3.805892   2.428759   1.396297   0.000000
     5  C    4.292901   2.794307   2.413005   1.396540   0.000000
     6  C    3.798155   2.430009   2.799413   2.428136   1.396399
     7  C    2.511604   1.403567   2.422809   2.797834   2.411899
     8  S    6.103919   4.606607   4.082358   2.781171   1.814029
     9  O    6.624235   5.153075   4.624170   3.376685   2.550769
    10  O    6.555488   5.116219   4.922208   3.805933   2.572132
    11  O    6.554986   5.111643   4.269417   2.914631   2.571821
    12  H    1.094783   2.156737   2.628580   4.021968   4.811175
    13  H    1.094559   2.142654   3.270731   4.467216   4.800561
    14  H    1.095142   2.136494   3.198328   4.390306   4.755518
    15  H    2.749292   2.169554   1.086533   2.143528   3.391473
    16  H    4.686618   3.418658   2.165370   1.087000   2.151955
    17  H    4.674638   3.419641   3.886225   3.408040   2.152589
    18  H    2.724741   2.167903   3.412910   3.884417   3.391952
                    6          7          8          9         10
     6  C    0.000000
     7  C    1.396109   0.000000
     8  S    2.783364   4.083176   0.000000
     9  O    3.397118   4.638254   1.459204   0.000000
    10  O    2.908511   4.267443   1.460594   2.470781   0.000000
    11  O    3.798281   4.913476   1.461135   2.471792   2.462706
    12  H    4.585667   3.427500   6.594209   7.083289   7.214802
    13  H    4.129677   2.792495   6.597006   6.938443   7.013986
    14  H    4.134696   2.837830   6.516587   7.213405   6.778546
    15  H    3.885803   3.414430   4.923696   5.415846   5.870643
    16  H    3.407554   3.884703   2.896920   3.409438   4.137905
    17  H    1.086935   2.165051   2.902053   3.446655   2.543494
    18  H    2.145354   1.086681   4.927755   5.440365   4.874335
                   11         12         13         14         15
    11  O    0.000000
    12  H    6.860555   0.000000
    13  H    7.220879   1.768995   0.000000
    14  H    6.928401   1.770468   1.785093   0.000000
    15  H    4.875821   2.396030   3.547501   3.446921   0.000000
    16  H    2.557539   4.714839   5.385410   5.283783   2.478562
    17  H    4.128519   5.550271   4.884667   4.904409   4.972514
    18  H    5.861269   3.787539   2.717618   2.823276   4.322434
                   16         17         18
    16  H    0.000000
    17  H    4.296127   0.000000
    18  H    4.971199   2.481130   0.000000
 Stoichiometry    C7H7O3S(1-)
 Framework group  C1[X(C7H7O3S)]
 Deg. of freedom    48
 Full point group                 C1      NOp   1
 Largest Abelian subgroup         C1      NOp   1
 Largest concise Abelian subgroup C1      NOp   1
                         Standard orientation:                         
 ---------------------------------------------------------------------
 Center     Atomic      Atomic             Coordinates (Angstroms)
 Number     Number       Type             X           Y           Z
 ---------------------------------------------------------------------
      1          6           0       -4.120310   -0.005274   -0.063545
      2          6           0       -2.623097    0.005538    0.014348
      3          6           0       -1.913249    1.215343    0.031552
      4          6           0       -0.517083    1.214778    0.050626
      5          6           0        0.170859   -0.000541    0.058260
      6          6           0       -0.521203   -1.213354    0.050226
      7          6           0       -1.917178   -1.207464    0.031870
      8         16           0        1.983413   -0.001010   -0.014874
      9          8           0        2.340201    0.024140    1.399816
     10          8           0        2.283431   -1.244722   -0.719506
     11          8           0        2.281397    1.217582   -0.763976
     12          1           0       -4.533332    1.006678   -0.000956
     13          1           0       -4.541349   -0.590115    0.760316
     14          1           0       -4.440798   -0.441173   -1.015708
     15          1           0       -2.437122    2.167106    0.015518
     16          1           0        0.041162    2.147472    0.046984
     17          1           0        0.032547   -2.148646    0.045871
     18          1           0       -2.448386   -2.155313    0.015262
 ---------------------------------------------------------------------
 Rotational constants (GHZ):           2.6577832           0.5720707           0.5199178
 Leave Link  202 at Tue Mar 10 14:55:04 2020, MaxMem=  6979321856 cpu:               0.1 elap:               0.0
 (Enter /opt/g16/l301.exe)
 Standard basis: def2TZVP (5D, 7F)
 Ernie: Thresh=  0.10000D-02 Tol=  0.10000D-05 Strict=F.
 There are   444 symmetry adapted cartesian basis functions of A   symmetry.
 There are   389 symmetry adapted basis functions of A   symmetry.
   389 basis functions,   635 primitive gaussians,   444 cartesian basis functions
    45 alpha electrons       45 beta electrons
       nuclear repulsion energy       714.2642732102 Hartrees.
 IExCor= 1009 DFT=T Ex=PBE Corr=PBE ExCW=0 ScaHFX=  0.000000
 ScaDFX=  1.000000  1.000000  1.000000  1.000000 ScalE2=  1.000000  1.000000
 IRadAn=      5 IRanWt=     -1 IRanGd=            0 ICorTp=0 IEmpDi=  4
 NAtoms=   18 NActive=   18 NUniq=   18 SFac= 1.00D+00 NAtFMM=   60 NAOKFM=F Big=F
 Integral buffers will be    131072 words long.
 Raffenetti 2 integral format.
 Two-electron integral symmetry is turned on.
 Standard density basis: W06 (5D, 7F)
   618 Density fitting functions
 There are   618 symmetry adapted density basis functions of A   symmetry.
 Using the following non-standard input for PCM:
 eps=999.0
 --- end of non-standard input.
 ------------------------------------------------------------------------------
 Polarizable Continuum Model (PCM)
 =================================
 Model                : C-PCM.
 Atomic radii         : UFF (Universal Force Field).
 Polarization charges : Total charges.
 Charge compensation  : None.
 Solution method      : On-the-fly selection.
 Cavity type          : Scaled VdW (van der Waals Surface) (Alpha=1.100).
 Cavity algorithm     : GePol (No added spheres)
                        Default sphere list used, NSphG=   18.
                        Lebedev-Laikov grids with approx.  5.0 points / Ang**2.
                        Smoothing algorithm: York/Karplus (Gamma=1.0000).
                        Polarization charges: spherical gaussians, with
                                              point-specific exponents (IZeta= 3).
                        Self-potential: point-specific (ISelfS= 7).
                        Self-field    : sphere-specific E.n sum rule (ISelfD= 2).
 1st derivatives      : Analytical E(r).r(x)/FMM algorithm (CHGder, D1EAlg=3).
                        Cavity 1st derivative terms included.
 Solvent              : Generic,
                        Eps                           = 999.000000
                        Eps(infinity)                 =   0.000000
                        RSolv                         =   0.000000 Ang.
                        Molar volume                  =   0.000000 cm**3/mol
                        Thermal expansion coefficient =   0.000000 K**-1
                        Absolute temperature          = 298.150000 K
                        Numeral density               =   0.000000 Ang**-3
                        Hydrogen bond acidity         =   0.000000
                        Hydrogen bond basicity        =   0.000000
                        Surface tension at interface  =   0.000000 (cal/mol)*Ang**-2
                        Carbon aromaticity            =   0.000000
                        Electronegative halogenicity  =   0.000000
 ------------------------------------------------------------------------------
 Spheres list:
 ISph  on   Nord     Re0    Alpha      Xe            Ye            Ze
    1   C      1    1.9255  1.100     -4.120310     -0.005274     -0.063545
    2   C      2    1.9255  1.100     -2.623097      0.005538      0.014348
    3   C      3    1.9255  1.100     -1.913249      1.215343      0.031552
    4   C      4    1.9255  1.100     -0.517083      1.214778      0.050626
    5   C      5    1.9255  1.100      0.170859     -0.000541      0.058260
    6   C      6    1.9255  1.100     -0.521203     -1.213354      0.050226
    7   C      7    1.9255  1.100     -1.917178     -1.207464      0.031870
    8   S      8    2.0175  1.100      1.983413     -0.001010     -0.014874
    9   O      9    1.7500  1.100      2.340201      0.024140      1.399816
   10   O     10    1.7500  1.100      2.283431     -1.244722     -0.719506
   11   O     11    1.7500  1.100      2.281397      1.217582     -0.763976
   12   H     12    1.4430  1.100     -4.533332      1.006678     -0.000956
   13   H     13    1.4430  1.100     -4.541349     -0.590115      0.760316
   14   H     14    1.4430  1.100     -4.440798     -0.441173     -1.015708
   15   H     15    1.4430  1.100     -2.437122      2.167106      0.015518
   16   H     16    1.4430  1.100      0.041162      2.147472      0.046984
   17   H     17    1.4430  1.100      0.032547     -2.148646      0.045871
   18   H     18    1.4430  1.100     -2.448386     -2.155313      0.015262
 ------------------------------------------------------------------------------
 GePol: Number of generator spheres                  =      18
 GePol: Total number of spheres                      =      18
 GePol: Number of exposed spheres                    =      18 (100.00%)
 GePol: Number of points                             =    1662
 GePol: Average weight of points                     =       0.13
 GePol: Minimum weight of points                     =   0.85D-11
 GePol: Maximum weight of points                     =    0.20577
 GePol: Number of points with low weight             =      83
 GePol: Fraction of low-weight points (<1% of avg)   =       4.99%
 GePol: Cavity surface area                          =    217.771 Ang**2
 GePol: Cavity volume                                =    218.194 Ang**3
 Leave Link  301 at Tue Mar 10 14:55:04 2020, MaxMem=  6979321856 cpu:               1.0 elap:               0.1
 (Enter /opt/g16/l302.exe)
 NPDir=0 NMtPBC=     1 NCelOv=     1 NCel=       1 NClECP=     1 NCelD=      1
         NCelK=      1 NCelE2=     1 NClLst=     1 CellRange=     0.0.
 One-electron integrals computed using PRISM.
 One-electron integral symmetry used in STVInt
   1 Symmetry operations used in ECPInt.
 ECPInt:  NShTT=   11476 NPrTT=   36592 LenC2=   10751 LenP2D=   25918.
 LDataN:  DoStor=T MaxTD1= 6 Len=  172
 NBasis=   389 RedAO= T EigKep=  7.98D-06  NBF=   389
 NBsUse=   389 1.00D-06 EigRej= -1.00D+00 NBFU=   389
 NBasis=      389 NBas6D=      444 NTT=       75855   NTT6D=    98790
 NDBShl=      202 NDBF=        618 NDBF6D=      757  NNucDB=        0
 IDenFi=        2 ISolve=        0 FullAP=F BlkAPC=T NucTyp=        0
 TolInv= 1.00D-06 TolIt=  1.00D-10 IR12=0.
 FoFCou: FMM=F IPFlag=           0 FMFlag=           0 FMFlg1=           0
         NFxFlg=           0 DoJE=F BraDBF=T KetDBF=T FulRan=T
         wScrn=  0.000000 ICntrl=       600 IOpCl=  3 I1Cent=           6 NGrid=           0
         NMat0=    1 NMatS0=    757 NMatT0=    0 NMatD0=    1 NMtDS0=    0 NMtDT0=    0
 Petite list used in FoFCou.
 DBF EigKep=  9.55D-06 EigRej= -1.00D+00
 NDBF=    618  NBFD=   618
 NRank=   618 NBFDU=   618
 S*AI*S=  8.06563777433    
 Precomputing XC quadrature grid using
 IXCGrd= 4 IRadAn=           5 IRanWt=          -1 IRanGd=           0 AccXCQ= 0.00D+00.
 Generated NRdTot=       0 NPtTot=           0 NUsed=           0 NTot=          32
 NSgBfM=   441   441   441   441   441 MxSgAt=    18 MxSgA2=    18.
 Leave Link  302 at Tue Mar 10 14:55:05 2020, MaxMem=  6979321856 cpu:               8.3 elap:               0.7
 (Enter /opt/g16/l303.exe)
 DipDrv:  MaxL=1.
 Leave Link  303 at Tue Mar 10 14:55:05 2020, MaxMem=  6979321856 cpu:               0.6 elap:               0.1
 (Enter /opt/g16/l401.exe)
 ExpMin= 9.52D-02 ExpMax= 6.07D+04 ExpMxC= 2.07D+03 IAcc=3 IRadAn=         5 AccDes= 0.00D+00
 Harris functional with IExCor= 1009 and IRadAn=       5 diagonalized for initial guess.
 HarFok:  IExCor= 1009 AccDes= 0.00D+00 IRadAn=         5 IDoV= 1 UseB2=F ITyADJ=14
 ICtDFT=  3500011 ScaDFX=  1.000000  1.000000  1.000000  1.000000
 FoFCou: FMM=F IPFlag=           0 FMFlag=      100000 FMFlg1=           0
         NFxFlg=           0 DoJE=T BraDBF=F KetDBF=T FulRan=T
         wScrn=  0.000000 ICntrl=       500 IOpCl=  0 I1Cent=   200000004 NGrid=           0
         NMat0=    1 NMatS0=      1 NMatT0=    0 NMatD0=    1 NMtDS0=    0 NMtDT0=    0
 Petite list used in FoFCou.
 Harris En= -894.715317122708    
 JPrj=0 DoOrth=F DoCkMO=F.
 Leave Link  401 at Tue Mar 10 14:55:06 2020, MaxMem=  6979321856 cpu:              15.4 elap:               1.3
 (Enter /opt/g16/l502.exe)
 Density fitting will be used, IDenFit= 2 NucTyp=  0.
 Integral symmetry usage will be decided dynamically.
 Closed shell SCF:
 Using DIIS extrapolation, IDIIS=  1040.
 NGot=  6979321856 LenX=  6978917712 LenY=  6978720132
 Requested convergence on RMS density matrix=1.00D-08 within 128 cycles.
 Requested convergence on MAX density matrix=1.00D-06.
 Requested convergence on             energy=1.00D-06.
 No special actions if energy rises.
 Fock matrices will be formed incrementally for  20 cycles.

 Cycle   1  Pass 1  IDiag  1:
 FoFCou: FMM=F IPFlag=           0 FMFlag=      100000 FMFlg1=           0
         NFxFlg=           0 DoJE=T BraDBF=T KetDBF=F FulRan=T
         wScrn=  0.000000 ICntrl=       500 IOpCl=  0 I1Cent=           5 NGrid=           0
         NMat0=    1 NMatS0=      1 NMatT0=    0 NMatD0=    1 NMtDS0=    0 NMtDT0=    0
 Symmetry not used in FoFCou.
 FoFJK:  IHMeth= 1 ICntrl=     500 DoSepK=F KAlg= 0 I1Cent=           4 FoldK=F
 IRaf= 890000000 NMat=       1 IRICut=       1 DoRegI=T DoRafI=F ISym2E= 0 IDoP0=0 IntGTp=1.
 Inv3:  Mode=1 IEnd=     8286732.
 Iteration    1 A*A^-1 deviation from unit magnitude is 3.33D-15 for    444.
 Iteration    1 A*A^-1 deviation from orthogonality  is 1.94D-15 for   1325   1167.
 Iteration    1 A^-1*A deviation from unit magnitude is 3.11D-15 for    444.
 Iteration    1 A^-1*A deviation from orthogonality  is 1.78D-15 for   1519    330.
 E= -894.038754390626    
 DIIS: error= 4.06D-02 at cycle   1 NSaved=   1.
 NSaved= 1 IEnMin= 1 EnMin= -894.038754390626     IErMin= 1 ErrMin= 4.06D-02
 ErrMax= 4.06D-02  0.00D+00 EMaxC= 1.00D-01 BMatC= 5.48D-01 BMatP= 5.48D-01
 IDIUse=3 WtCom= 5.94D-01 WtEn= 4.06D-01
 Coeff-Com:  0.100D+01
 Coeff-En:   0.100D+01
 Coeff:      0.100D+01
 Gap=     0.166 Goal=   None    Shift=    0.000
 GapD=    0.166 DampG=1.000 DampE=0.500 DampFc=0.5000 IDamp=-1.
 Damping current iteration by 5.00D-01
 RMSDP=1.09D-02 MaxDP=6.86D-01              OVMax= 2.46D-01

 Cycle   2  Pass 1  IDiag  1:
 RMSU=  5.40D-03    CP:  1.06D+00
 E= -894.064848426129     Delta-E=       -0.026094035503 Rises=F Damp=T
 DIIS: error= 2.20D-02 at cycle   2 NSaved=   2.
 NSaved= 2 IEnMin= 2 EnMin= -894.064848426129     IErMin= 2 ErrMin= 2.20D-02
 ErrMax= 2.20D-02  0.00D+00 EMaxC= 1.00D-01 BMatC= 1.43D-01 BMatP= 5.48D-01
 IDIUse=3 WtCom= 7.80D-01 WtEn= 2.20D-01
 Coeff-Com:  0.319D+00 0.681D+00
 Coeff-En:   0.476D+00 0.524D+00
 Coeff:      0.354D+00 0.646D+00
 Gap=     0.170 Goal=   None    Shift=    0.000
 RMSDP=2.37D-03 MaxDP=1.53D-01 DE=-2.61D-02 OVMax= 1.91D-01

 Cycle   3  Pass 1  IDiag  1:
 RMSU=  1.38D-03    CP:  1.03D+00  6.49D-01
 E= -894.427381433367     Delta-E=       -0.362533007238 Rises=F Damp=F
 DIIS: error= 7.87D-03 at cycle   3 NSaved=   3.
 NSaved= 3 IEnMin= 3 EnMin= -894.427381433367     IErMin= 3 ErrMin= 7.87D-03
 ErrMax= 7.87D-03  0.00D+00 EMaxC= 1.00D-01 BMatC= 3.14D-02 BMatP= 1.43D-01
 IDIUse=3 WtCom= 9.21D-01 WtEn= 7.87D-02
 Coeff-Com:  0.160D+00 0.355D+00 0.485D+00
 Coeff-En:   0.000D+00 0.000D+00 0.100D+01
 Coeff:      0.147D+00 0.327D+00 0.526D+00
 Gap=     0.167 Goal=   None    Shift=    0.000
 RMSDP=1.39D-03 MaxDP=7.99D-02 DE=-3.63D-01 OVMax= 7.35D-02

 Cycle   4  Pass 1  IDiag  1:
 RMSU=  7.04D-04    CP:  1.02D+00  4.69D-01  4.99D-01
 E= -894.451435912509     Delta-E=       -0.024054479143 Rises=F Damp=F
 DIIS: error= 6.30D-03 at cycle   4 NSaved=   4.
 NSaved= 4 IEnMin= 4 EnMin= -894.451435912509     IErMin= 4 ErrMin= 6.30D-03
 ErrMax= 6.30D-03  0.00D+00 EMaxC= 1.00D-01 BMatC= 8.98D-03 BMatP= 3.14D-02
 IDIUse=3 WtCom= 9.37D-01 WtEn= 6.30D-02
 Coeff-Com:  0.517D-01 0.105D+00 0.346D+00 0.498D+00
 Coeff-En:   0.000D+00 0.000D+00 0.249D+00 0.751D+00
 Coeff:      0.484D-01 0.984D-01 0.340D+00 0.513D+00
 Gap=     0.159 Goal=   None    Shift=    0.000
 RMSDP=3.50D-04 MaxDP=1.73D-02 DE=-2.41D-02 OVMax= 5.05D-02

 Cycle   5  Pass 1  IDiag  1:
 RMSU=  1.49D-04    CP:  1.03D+00  4.98D-01  6.30D-01  7.07D-01
 E= -894.459178274076     Delta-E=       -0.007742361567 Rises=F Damp=F
 DIIS: error= 3.09D-03 at cycle   5 NSaved=   5.
 NSaved= 5 IEnMin= 5 EnMin= -894.459178274076     IErMin= 5 ErrMin= 3.09D-03
 ErrMax= 3.09D-03  0.00D+00 EMaxC= 1.00D-01 BMatC= 1.61D-03 BMatP= 8.98D-03
 IDIUse=3 WtCom= 9.69D-01 WtEn= 3.09D-02
 Coeff-Com:  0.167D-01 0.294D-01 0.179D+00 0.358D+00 0.416D+00
 Coeff-En:   0.000D+00 0.000D+00 0.000D+00 0.163D+00 0.837D+00
 Coeff:      0.161D-01 0.285D-01 0.174D+00 0.352D+00 0.429D+00
 Gap=     0.160 Goal=   None    Shift=    0.000
 RMSDP=9.11D-05 MaxDP=4.67D-03 DE=-7.74D-03 OVMax= 1.97D-02

 Cycle   6  Pass 1  IDiag  1:
 RMSU=  3.92D-05    CP:  1.03D+00  4.99D-01  6.25D-01  7.41D-01  4.78D-01
 E= -894.460822688231     Delta-E=       -0.001644414155 Rises=F Damp=F
 DIIS: error= 6.39D-04 at cycle   6 NSaved=   6.
 NSaved= 6 IEnMin= 6 EnMin= -894.460822688231     IErMin= 6 ErrMin= 6.39D-04
 ErrMax= 6.39D-04  0.00D+00 EMaxC= 1.00D-01 BMatC= 8.00D-05 BMatP= 1.61D-03
 IDIUse=3 WtCom= 9.94D-01 WtEn= 6.39D-03
 Coeff-Com:  0.547D-02 0.700D-02 0.688D-01 0.147D+00 0.244D+00 0.528D+00
 Coeff-En:   0.000D+00 0.000D+00 0.000D+00 0.000D+00 0.862D-02 0.991D+00
 Coeff:      0.544D-02 0.695D-02 0.684D-01 0.146D+00 0.242D+00 0.530D+00
 Gap=     0.159 Goal=   None    Shift=    0.000
 RMSDP=3.96D-05 MaxDP=2.05D-03 DE=-1.64D-03 OVMax= 4.13D-03

 Cycle   7  Pass 1  IDiag  1:
 RMSU=  1.76D-05    CP:  1.03D+00  5.04D-01  6.31D-01  7.34D-01  5.21D-01
                    CP:  5.22D-01
 E= -894.460903130213     Delta-E=       -0.000080441982 Rises=F Damp=F
 DIIS: error= 1.54D-04 at cycle   7 NSaved=   7.
 NSaved= 7 IEnMin= 7 EnMin= -894.460903130213     IErMin= 7 ErrMin= 1.54D-04
 ErrMax= 1.54D-04  0.00D+00 EMaxC= 1.00D-01 BMatC= 8.89D-06 BMatP= 8.00D-05
 IDIUse=3 WtCom= 9.98D-01 WtEn= 1.54D-03
 Coeff-Com:  0.156D-02 0.314D-03 0.233D-01 0.528D-01 0.105D+00 0.323D+00
 Coeff-Com:  0.494D+00
 Coeff-En:   0.000D+00 0.000D+00 0.000D+00 0.000D+00 0.000D+00 0.366D-01
 Coeff-En:   0.963D+00
 Coeff:      0.155D-02 0.314D-03 0.232D-01 0.527D-01 0.105D+00 0.323D+00
 Coeff:      0.495D+00
 Gap=     0.159 Goal=   None    Shift=    0.000
 RMSDP=1.17D-05 MaxDP=5.35D-04 DE=-8.04D-05 OVMax= 8.61D-04

 Cycle   8  Pass 1  IDiag  1:
 RMSU=  3.56D-06    CP:  1.03D+00  5.02D-01  6.31D-01  7.33D-01  5.22D-01
                    CP:  5.99D-01  6.14D-01
 E= -894.460910622109     Delta-E=       -0.000007491896 Rises=F Damp=F
 DIIS: error= 3.23D-05 at cycle   8 NSaved=   8.
 NSaved= 8 IEnMin= 8 EnMin= -894.460910622109     IErMin= 8 ErrMin= 3.23D-05
 ErrMax= 3.23D-05  0.00D+00 EMaxC= 1.00D-01 BMatC= 4.34D-07 BMatP= 8.89D-06
 IDIUse=1 WtCom= 1.00D+00 WtEn= 0.00D+00
 Coeff-Com:  0.539D-03-0.320D-03 0.794D-02 0.182D-01 0.402D-01 0.139D+00
 Coeff-Com:  0.263D+00 0.531D+00
 Coeff:      0.539D-03-0.320D-03 0.794D-02 0.182D-01 0.402D-01 0.139D+00
 Coeff:      0.263D+00 0.531D+00
 Gap=     0.159 Goal=   None    Shift=    0.000
 RMSDP=3.38D-06 MaxDP=1.86D-04 DE=-7.49D-06 OVMax= 1.65D-04

 Cycle   9  Pass 1  IDiag  1:
 RMSU=  2.07D-06    CP:  1.03D+00  5.02D-01  6.30D-01  7.34D-01  5.23D-01
                    CP:  6.07D-01  6.20D-01  6.24D-01
 E= -894.460910860325     Delta-E=       -0.000000238216 Rises=F Damp=F
 DIIS: error= 2.63D-05 at cycle   9 NSaved=   9.
 NSaved= 9 IEnMin= 9 EnMin= -894.460910860325     IErMin= 9 ErrMin= 2.63D-05
 ErrMax= 2.63D-05  0.00D+00 EMaxC= 1.00D-01 BMatC= 1.54D-07 BMatP= 4.34D-07
 IDIUse=1 WtCom= 1.00D+00 WtEn= 0.00D+00
 Coeff-Com:  0.173D-03-0.242D-03 0.206D-02 0.458D-02 0.122D-01 0.478D-01
 Coeff-Com:  0.106D+00 0.385D+00 0.442D+00
 Coeff:      0.173D-03-0.242D-03 0.206D-02 0.458D-02 0.122D-01 0.478D-01
 Coeff:      0.106D+00 0.385D+00 0.442D+00
 Gap=     0.159 Goal=   None    Shift=    0.000
 RMSDP=1.56D-06 MaxDP=1.00D-04 DE=-2.38D-07 OVMax= 9.12D-05

 Cycle  10  Pass 1  IDiag  1:
 RMSU=  5.02D-07    CP:  1.03D+00  5.02D-01  6.30D-01  7.34D-01  5.23D-01
                    CP:  6.04D-01  6.23D-01  7.34D-01  4.25D-01
 E= -894.460910965827     Delta-E=       -0.000000105502 Rises=F Damp=F
 DIIS: error= 6.61D-06 at cycle  10 NSaved=  10.
 NSaved=10 IEnMin=10 EnMin= -894.460910965827     IErMin=10 ErrMin= 6.61D-06
 ErrMax= 6.61D-06  0.00D+00 EMaxC= 1.00D-01 BMatC= 1.35D-08 BMatP= 1.54D-07
 IDIUse=1 WtCom= 1.00D+00 WtEn= 0.00D+00
 Coeff-Com:  0.602D-04-0.110D-03 0.496D-03 0.983D-03 0.354D-02 0.152D-01
 Coeff-Com:  0.372D-01 0.189D+00 0.287D+00 0.466D+00
 Coeff:      0.602D-04-0.110D-03 0.496D-03 0.983D-03 0.354D-02 0.152D-01
 Coeff:      0.372D-01 0.189D+00 0.287D+00 0.466D+00
 Gap=     0.159 Goal=   None    Shift=    0.000
 RMSDP=4.75D-07 MaxDP=2.48D-05 DE=-1.06D-07 OVMax= 3.09D-05

 Cycle  11  Pass 1  IDiag  1:
 RMSU=  1.76D-07    CP:  1.03D+00  5.02D-01  6.30D-01  7.33D-01  5.23D-01
                    CP:  6.04D-01  6.30D-01  7.23D-01  5.23D-01  6.09D-01
 E= -894.460910975864     Delta-E=       -0.000000010036 Rises=F Damp=F
 DIIS: error= 1.68D-06 at cycle  11 NSaved=  11.
 NSaved=11 IEnMin=11 EnMin= -894.460910975864     IErMin=11 ErrMin= 1.68D-06
 ErrMax= 1.68D-06  0.00D+00 EMaxC= 1.00D-01 BMatC= 1.11D-09 BMatP= 1.35D-08
 IDIUse=1 WtCom= 1.00D+00 WtEn= 0.00D+00
 Coeff-Com:  0.105D-04-0.295D-04 0.104D-04-0.545D-04 0.392D-03 0.203D-02
 Coeff-Com:  0.582D-02 0.536D-01 0.102D+00 0.272D+00 0.564D+00
 Coeff:      0.105D-04-0.295D-04 0.104D-04-0.545D-04 0.392D-03 0.203D-02
 Coeff:      0.582D-02 0.536D-01 0.102D+00 0.272D+00 0.564D+00
 Gap=     0.159 Goal=   None    Shift=    0.000
 RMSDP=1.68D-07 MaxDP=8.63D-06 DE=-1.00D-08 OVMax= 9.34D-06

 Cycle  12  Pass 1  IDiag  1:
 RMSU=  4.51D-08    CP:  1.03D+00  5.02D-01  6.30D-01  7.34D-01  5.23D-01
                    CP:  6.04D-01  6.26D-01  7.29D-01  5.23D-01  6.56D-01
                    CP:  6.63D-01
 E= -894.460910976822     Delta-E=       -0.000000000958 Rises=F Damp=F
 DIIS: error= 2.77D-07 at cycle  12 NSaved=  12.
 NSaved=12 IEnMin=12 EnMin= -894.460910976822     IErMin=12 ErrMin= 2.77D-07
 ErrMax= 2.77D-07  0.00D+00 EMaxC= 1.00D-01 BMatC= 4.65D-11 BMatP= 1.11D-09
 IDIUse=1 WtCom= 1.00D+00 WtEn= 0.00D+00
 Coeff-Com:  0.339D-05-0.105D-04-0.113D-04-0.646D-04 0.619D-04 0.451D-03
 Coeff-Com:  0.161D-02 0.205D-01 0.414D-01 0.122D+00 0.295D+00 0.519D+00
 Coeff:      0.339D-05-0.105D-04-0.113D-04-0.646D-04 0.619D-04 0.451D-03
 Coeff:      0.161D-02 0.205D-01 0.414D-01 0.122D+00 0.295D+00 0.519D+00
 Gap=     0.159 Goal=   None    Shift=    0.000
 RMSDP=1.82D-08 MaxDP=7.49D-07 DE=-9.58D-10 OVMax= 2.20D-06

 Cycle  13  Pass 1  IDiag  1:
 RMSU=  1.14D-08    CP:  1.03D+00  5.02D-01  6.30D-01  7.34D-01  5.23D-01
                    CP:  6.04D-01  6.27D-01  7.29D-01  5.22D-01  6.56D-01
                    CP:  6.82D-01  7.50D-01
 E= -894.460910976866     Delta-E=       -0.000000000044 Rises=F Damp=F
 DIIS: error= 1.02D-07 at cycle  13 NSaved=  13.
 NSaved=13 IEnMin=13 EnMin= -894.460910976866     IErMin=13 ErrMin= 1.02D-07
 ErrMax= 1.02D-07  0.00D+00 EMaxC= 1.00D-01 BMatC= 5.37D-12 BMatP= 4.65D-11
 IDIUse=1 WtCom= 1.00D+00 WtEn= 0.00D+00
 Coeff-Com:  0.879D-06-0.283D-05-0.492D-05-0.255D-04-0.892D-06 0.538D-04
 Coeff-Com:  0.332D-03 0.569D-02 0.118D-01 0.389D-01 0.108D+00 0.296D+00
 Coeff-Com:  0.539D+00
 Coeff:      0.879D-06-0.283D-05-0.492D-05-0.255D-04-0.892D-06 0.538D-04
 Coeff:      0.332D-03 0.569D-02 0.118D-01 0.389D-01 0.108D+00 0.296D+00
 Coeff:      0.539D+00
 Gap=     0.159 Goal=   None    Shift=    0.000
 RMSDP=6.61D-09 MaxDP=2.53D-07 DE=-4.35D-11 OVMax= 9.03D-07

 Error on total polarization charges =  0.01608
 SCF Done:  E(RPBE-PBE) =  -894.460910977     A.U. after   13 cycles
            NFock= 13  Conv=0.66D-08     -V/T= 2.0029
 KE= 8.918831222407D+02 PE=-3.552772034086D+03 EE= 1.052163727658D+03
 Leave Link  502 at Tue Mar 10 14:55:49 2020, MaxMem=  6979321856 cpu:             508.2 elap:              42.7
 (Enter /opt/g16/l601.exe)
 Copying SCF densities to generalized density rwf, IOpCl= 0 IROHF=0.

 **********************************************************************

            Population analysis using the SCF Density.

 **********************************************************************

 Orbital symmetries:
       Occupied  (A) (A) (A) (A) (A) (A) (A) (A) (A) (A) (A) (A)
                 (A) (A) (A) (A) (A) (A) (A) (A) (A) (A) (A) (A)
                 (A) (A) (A) (A) (A) (A) (A) (A) (A) (A) (A) (A)
                 (A) (A) (A) (A) (A) (A) (A) (A) (A)
       Virtual   (A) (A) (A) (A) (A) (A) (A) (A) (A) (A) (A) (A)
                 (A) (A) (A) (A) (A) (A) (A) (A) (A) (A) (A) (A)
                 (A) (A) (A) (A) (A) (A) (A) (A) (A) (A) (A) (A)
                 (A) (A) (A) (A) (A) (A) (A) (A) (A) (A) (A) (A)
                 (A) (A) (A) (A) (A) (A) (A) (A) (A) (A) (A) (A)
                 (A) (A) (A) (A) (A) (A) (A) (A) (A) (A) (A) (A)
                 (A) (A) (A) (A) (A) (A) (A) (A) (A) (A) (A) (A)
                 (A) (A) (A) (A) (A) (A) (A) (A) (A) (A) (A) (A)
                 (A) (A) (A) (A) (A) (A) (A) (A) (A) (A) (A) (A)
                 (A) (A) (A) (A) (A) (A) (A) (A) (A) (A) (A) (A)
                 (A) (A) (A) (A) (A) (A) (A) (A) (A) (A) (A) (A)
                 (A) (A) (A) (A) (A) (A) (A) (A) (A) (A) (A) (A)
                 (A) (A) (A) (A) (A) (A) (A) (A) (A) (A) (A) (A)
                 (A) (A) (A) (A) (A) (A) (A) (A) (A) (A) (A) (A)
                 (A) (A) (A) (A) (A) (A) (A) (A) (A) (A) (A) (A)
                 (A) (A) (A) (A) (A) (A) (A) (A) (A) (A) (A) (A)
                 (A) (A) (A) (A) (A) (A) (A) (A) (A) (A) (A) (A)
                 (A) (A) (A) (A) (A) (A) (A) (A) (A) (A) (A) (A)
                 (A) (A) (A) (A) (A) (A) (A) (A) (A) (A) (A) (A)
                 (A) (A) (A) (A) (A) (A) (A) (A) (A) (A) (A) (A)
                 (A) (A) (A) (A) (A) (A) (A) (A) (A) (A) (A) (A)
                 (A) (A) (A) (A) (A) (A) (A) (A) (A) (A) (A) (A)
                 (A) (A) (A) (A) (A) (A) (A) (A) (A) (A) (A) (A)
                 (A) (A) (A) (A) (A) (A) (A) (A) (A) (A) (A) (A)
                 (A) (A) (A) (A) (A) (A) (A) (A) (A) (A) (A) (A)
                 (A) (A) (A) (A) (A) (A) (A) (A) (A) (A) (A) (A)
                 (A) (A) (A) (A) (A) (A) (A) (A) (A) (A) (A) (A)
                 (A) (A) (A) (A) (A) (A) (A) (A) (A) (A) (A) (A)
                 (A) (A) (A) (A) (A) (A) (A) (A)
 The electronic state is 1-A.
 Alpha  occ. eigenvalues --  -88.18842 -18.70661 -18.70659 -18.70649  -9.89639
 Alpha  occ. eigenvalues --   -9.89130  -9.88612  -9.88577  -9.88469  -9.88450
 Alpha  occ. eigenvalues --   -9.87565  -7.78281  -5.80366  -5.80269  -5.80266
 Alpha  occ. eigenvalues --   -1.00865  -0.87970  -0.87897  -0.78159  -0.70333
 Alpha  occ. eigenvalues --   -0.67554  -0.62333  -0.54750  -0.54159  -0.50018
 Alpha  occ. eigenvalues --   -0.45173  -0.41776  -0.40635  -0.38903  -0.38671
 Alpha  occ. eigenvalues --   -0.38383  -0.37845  -0.37368  -0.33647  -0.32575
 Alpha  occ. eigenvalues --   -0.31521  -0.29779  -0.28381  -0.28365  -0.26170
 Alpha  occ. eigenvalues --   -0.24844  -0.23222  -0.23155  -0.20953  -0.20525
 Alpha virt. eigenvalues --   -0.04602  -0.04211   0.03172   0.04602   0.06082
 Alpha virt. eigenvalues --    0.06517   0.07463   0.09338   0.10102   0.10697
 Alpha virt. eigenvalues --    0.12089   0.12183   0.12986   0.14016   0.14975
 Alpha virt. eigenvalues --    0.15256   0.16902   0.17378   0.19323   0.20175
 Alpha virt. eigenvalues --    0.21155   0.21733   0.22465   0.22891   0.24512
 Alpha virt. eigenvalues --    0.25738   0.26153   0.27013   0.29090   0.29376
 Alpha virt. eigenvalues --    0.30620   0.31113   0.32079   0.32393   0.32648
 Alpha virt. eigenvalues --    0.33790   0.34700   0.36538   0.37908   0.38809
 Alpha virt. eigenvalues --    0.39399   0.39849   0.40334   0.41106   0.42649
 Alpha virt. eigenvalues --    0.43236   0.43318   0.43691   0.44283   0.45919
 Alpha virt. eigenvalues --    0.46540   0.47961   0.48176   0.49631   0.50723
 Alpha virt. eigenvalues --    0.51813   0.53670   0.54655   0.55338   0.56495
 Alpha virt. eigenvalues --    0.58044   0.58517   0.59811   0.60922   0.62897
 Alpha virt. eigenvalues --    0.63277   0.64207   0.67306   0.68589   0.69962
 Alpha virt. eigenvalues --    0.70596   0.71749   0.72208   0.73776   0.74122
 Alpha virt. eigenvalues --    0.76231   0.79764   0.80205   0.81777   0.83395
 Alpha virt. eigenvalues --    0.85238   0.86186   0.86737   0.88595   0.89771
 Alpha virt. eigenvalues --    0.90702   0.91627   0.93439   0.95448   0.97203
 Alpha virt. eigenvalues --    0.98460   1.01333   1.03943   1.05329   1.08725
 Alpha virt. eigenvalues --    1.10006   1.11611   1.14621   1.16405   1.16629
 Alpha virt. eigenvalues --    1.17252   1.19168   1.20566   1.23092   1.23752
 Alpha virt. eigenvalues --    1.24668   1.26847   1.28820   1.32117   1.32409
 Alpha virt. eigenvalues --    1.35158   1.36618   1.37900   1.38733   1.42805
 Alpha virt. eigenvalues --    1.42986   1.44375   1.46558   1.47176   1.47343
 Alpha virt. eigenvalues --    1.49085   1.50195   1.50600   1.51552   1.52330
 Alpha virt. eigenvalues --    1.52655   1.55405   1.56039   1.57056   1.57832
 Alpha virt. eigenvalues --    1.59779   1.60090   1.61336   1.61996   1.65063
 Alpha virt. eigenvalues --    1.66667   1.69354   1.71292   1.74787   1.75885
 Alpha virt. eigenvalues --    1.77488   1.80066   1.80520   1.82347   1.84209
 Alpha virt. eigenvalues --    1.85526   1.89278   1.92139   1.92965   1.93540
 Alpha virt. eigenvalues --    1.96328   1.98521   2.00605   2.01683   2.05556
 Alpha virt. eigenvalues --    2.07202   2.08043   2.08209   2.09511   2.09699
 Alpha virt. eigenvalues --    2.13611   2.14393   2.15167   2.16731   2.17200
 Alpha virt. eigenvalues --    2.18897   2.21600   2.27364   2.28099   2.29521
 Alpha virt. eigenvalues --    2.29649   2.31350   2.31390   2.33048   2.36848
 Alpha virt. eigenvalues --    2.37723   2.39724   2.40432   2.42343   2.43934
 Alpha virt. eigenvalues --    2.44981   2.47164   2.48710   2.50971   2.52873
 Alpha virt. eigenvalues --    2.53695   2.55158   2.58049   2.59262   2.61924
 Alpha virt. eigenvalues --    2.63588   2.63963   2.66274   2.67837   2.69593
 Alpha virt. eigenvalues --    2.71711   2.72249   2.73633   2.75815   2.77991
 Alpha virt. eigenvalues --    2.79154   2.82152   2.83652   2.84106   2.85009
 Alpha virt. eigenvalues --    2.85500   2.87597   2.88755   2.92213   2.92548
 Alpha virt. eigenvalues --    2.93078   2.93601   2.95003   2.97274   2.99470
 Alpha virt. eigenvalues --    3.02618   3.03186   3.03754   3.04137   3.05571
 Alpha virt. eigenvalues --    3.06067   3.07033   3.08564   3.09180   3.09852
 Alpha virt. eigenvalues --    3.13468   3.14607   3.15533   3.16778   3.21385
 Alpha virt. eigenvalues --    3.22450   3.23405   3.24189   3.24648   3.25728
 Alpha virt. eigenvalues --    3.27458   3.29718   3.31803   3.32201   3.34010
 Alpha virt. eigenvalues --    3.34449   3.38465   3.39320   3.39694   3.43094
 Alpha virt. eigenvalues --    3.43886   3.48480   3.51593   3.52421   3.57097
 Alpha virt. eigenvalues --    3.60933   3.61451   3.68084   3.68539   3.72929
 Alpha virt. eigenvalues --    3.74182   3.74964   3.79973   3.80434   3.84734
 Alpha virt. eigenvalues --    3.92718   3.94468   4.01005   4.01589   4.02119
 Alpha virt. eigenvalues --    4.08452   4.09601   4.10404   4.12427   4.14718
 Alpha virt. eigenvalues --    4.15795   4.16054   4.18422   4.22519   4.25469
 Alpha virt. eigenvalues --    4.28209   4.33327   4.34446   4.45121   4.50992
 Alpha virt. eigenvalues --    4.56432   4.57992   4.59758   4.61690   4.75482
 Alpha virt. eigenvalues --    4.79473   4.86994   4.88361   4.99193   5.02143
 Alpha virt. eigenvalues --    5.05090   5.05222   5.05477   5.06054   5.06572
 Alpha virt. eigenvalues --    5.07086   5.08087   5.08303   5.11448   5.16499
 Alpha virt. eigenvalues --    5.19813   5.20460   5.22908   5.23707   5.26487
 Alpha virt. eigenvalues --    5.33366   5.34845   5.39733   5.43529   5.46091
 Alpha virt. eigenvalues --    5.53401   5.57547   5.57794   5.59075   5.83141
 Alpha virt. eigenvalues --    6.18578   6.18868   6.22177   6.27795   6.28593
 Alpha virt. eigenvalues --    6.34689   6.60974   6.61834   6.62344   6.63115
 Alpha virt. eigenvalues --    6.73377   6.75253   6.75412   6.83943   6.84532
 Alpha virt. eigenvalues --    9.29803   9.49826   9.54098  21.70227  22.15505
 Alpha virt. eigenvalues --   22.26657  22.39244  22.41565  22.49683  22.76734
 Alpha virt. eigenvalues --   23.01458  43.06125  43.33900  43.45117
          Condensed to atoms (all electrons):
               1          2          3          4          5          6
     1  C    5.016623   0.355402  -0.097153   0.035155  -0.015706   0.027561
     2  C    0.355402   5.162396   0.279921   0.187756  -0.326606   0.213771
     3  C   -0.097153   0.279921   5.308061   0.159233   0.231314  -0.189267
     4  C    0.035155   0.187756   0.159233   5.519053   0.070585   0.069858
     5  C   -0.015706  -0.326606   0.231314   0.070585   5.966561   0.058927
     6  C    0.027561   0.213771  -0.189267   0.069858   0.058927   5.542335
     7  C   -0.118169   0.212817   0.102511  -0.193396   0.248044   0.131215
     8  S   -0.000164  -0.007913   0.017777  -0.042726   0.211130  -0.043927
     9  O   -0.000013  -0.001426   0.003502   0.005366  -0.121858   0.001295
    10  O   -0.000009  -0.000999   0.000053   0.007810  -0.121335  -0.004193
    11  O   -0.000012  -0.001167   0.005955  -0.003113  -0.121403   0.005636
    12  H    0.416464  -0.059584   0.001843   0.000608   0.000415  -0.000806
    13  H    0.395665  -0.042439  -0.000757  -0.001187   0.000502  -0.000297
    14  H    0.384547  -0.031614  -0.003747  -0.001294   0.000664  -0.000211
    15  H   -0.015216  -0.080259   0.459135  -0.082365   0.027128  -0.007174
    16  H   -0.000439   0.021131  -0.066911   0.453742  -0.096167   0.011292
    17  H   -0.000235   0.021108  -0.004826   0.011731  -0.096379   0.457177
    18  H   -0.011148  -0.093649   0.018647  -0.007667   0.029880  -0.093396
               7          8          9         10         11         12
     1  C   -0.118169  -0.000164  -0.000013  -0.000009  -0.000012   0.416464
     2  C    0.212817  -0.007913  -0.001426  -0.000999  -0.001167  -0.059584
     3  C    0.102511   0.017777   0.003502   0.000053   0.005955   0.001843
     4  C   -0.193396  -0.042726   0.005366   0.007810  -0.003113   0.000608
     5  C    0.248044   0.211130  -0.121858  -0.121335  -0.121403   0.000415
     6  C    0.131215  -0.043927   0.001295  -0.004193   0.005636  -0.000806
     7  C    5.374956   0.017245   0.003364   0.005482   0.000324   0.007141
     8  S    0.017245  13.507257   0.567259   0.570929   0.569572   0.000004
     9  O    0.003364   0.567259   8.224953  -0.083199  -0.083188   0.000000
    10  O    0.005482   0.570929  -0.083199   8.187805  -0.074385   0.000000
    11  O    0.000324   0.569572  -0.083188  -0.074385   8.190159   0.000000
    12  H    0.007141   0.000004   0.000000   0.000000   0.000000   0.543299
    13  H    0.004221   0.000002  -0.000000   0.000000   0.000000  -0.022378
    14  H    0.002838   0.000002   0.000000  -0.000000  -0.000000  -0.021959
    15  H    0.020509   0.000015   0.000027   0.000012  -0.000025   0.005657
    16  H   -0.004352  -0.004662  -0.001500   0.000968   0.023537  -0.000047
    17  H   -0.069990  -0.005229  -0.001541   0.024000   0.000943   0.000015
    18  H    0.481199   0.000042   0.000032  -0.000031   0.000014   0.000190
              13         14         15         16         17         18
     1  C    0.395665   0.384547  -0.015216  -0.000439  -0.000235  -0.011148
     2  C   -0.042439  -0.031614  -0.080259   0.021131   0.021108  -0.093649
     3  C   -0.000757  -0.003747   0.459135  -0.066911  -0.004826   0.018647
     4  C   -0.001187  -0.001294  -0.082365   0.453742   0.011731  -0.007667
     5  C    0.000502   0.000664   0.027128  -0.096167  -0.096379   0.029880
     6  C   -0.000297  -0.000211  -0.007174   0.011292   0.457177  -0.093396
     7  C    0.004221   0.002838   0.020509  -0.004352  -0.069990   0.481199
     8  S    0.000002   0.000002   0.000015  -0.004662  -0.005229   0.000042
     9  O   -0.000000   0.000000   0.000027  -0.001500  -0.001541   0.000032
    10  O    0.000000  -0.000000   0.000012   0.000968   0.024000  -0.000031
    11  O    0.000000  -0.000000  -0.000025   0.023537   0.000943   0.000014
    12  H   -0.022378  -0.021959   0.005657  -0.000047   0.000015   0.000190
    13  H    0.561927  -0.027385   0.000176   0.000019  -0.000021   0.002086
    14  H   -0.027385   0.566049   0.000229   0.000020  -0.000017   0.001550
    15  H    0.000176   0.000229   0.570919  -0.012516   0.000080  -0.000156
    16  H    0.000019   0.000020  -0.012516   0.562378  -0.000513   0.000076
    17  H   -0.000021  -0.000017   0.000080  -0.000513   0.562100  -0.013020
    18  H    0.002086   0.001550  -0.000156   0.000076  -0.013020   0.573926
 Mulliken charges:
               1
     1  C   -0.373153
     2  C    0.191353
     3  C   -0.225291
     4  C   -0.189149
     5  C    0.054304
     6  C   -0.179796
     7  C   -0.225958
     8  S    0.643384
     9  O   -0.513073
    10  O   -0.512907
    11  O   -0.512847
    12  H    0.129138
    13  H    0.129864
    14  H    0.130327
    15  H    0.113823
    16  H    0.113942
    17  H    0.114617
    18  H    0.111424
 Sum of Mulliken charges =  -1.00000
 Mulliken charges with hydrogens summed into heavy atoms:
               1
     1  C    0.016175
     2  C    0.191353
     3  C   -0.111468
     4  C   -0.075207
     5  C    0.054304
     6  C   -0.065180
     7  C   -0.114534
     8  S    0.643384
     9  O   -0.513073
    10  O   -0.512907
    11  O   -0.512847
 Electronic spatial extent (au):  <R**2>=           2186.7477
 Charge=             -1.0000 electrons
 Dipole moment (field-independent basis, Debye):
    X=            -12.8040    Y=             -0.0498    Z=              0.0256  Tot=             12.8041
 Quadrupole moment (field-independent basis, Debye-Ang):
   XX=            -96.0165   YY=            -75.2792   ZZ=            -83.1065
   XY=              0.1379   XZ=              0.3632   YZ=             -0.0008
 Traceless Quadrupole moment (field-independent basis, Debye-Ang):
   XX=            -11.2158   YY=              9.5216   ZZ=              1.6942
   XY=              0.1379   XZ=              0.3632   YZ=             -0.0008
 Octapole moment (field-independent basis, Debye-Ang**2):
  XXX=            -68.3059  YYY=              0.8306  ZZZ=             -6.6511  XYY=            -16.7018
  XXY=             -0.2367  XXZ=             -1.1852  XZZ=             -8.8265  YZZ=             -1.0348
  YYZ=              6.1982  XYZ=              0.0440
 Hexadecapole moment (field-independent basis, Debye-Ang**3):
 XXXX=          -2349.2457 YYYY=           -441.3286 ZZZZ=           -214.1335 XXXY=             -0.2964
 XXXZ=             -2.3067 YYYX=             -1.8345 YYYZ=             -0.0713 ZZZX=            -11.1138
 ZZZY=              0.1998 XXYY=           -477.0321 XXZZ=           -457.4489 YYZZ=           -120.8233
 XXYZ=             -0.4804 YYXZ=             13.6368 ZZXY=              2.3952
 N-N= 7.142642732102D+02 E-N=-3.552772017878D+03  KE= 8.918831222407D+02
 No NMR shielding tensors so no spin-rotation constants.
 Leave Link  601 at Tue Mar 10 14:55:49 2020, MaxMem=  6979321856 cpu:               2.8 elap:               0.3
 (Enter /opt/g16/l701.exe)
 ... and contract with generalized density number  0.
 Compute integral first derivatives.
   1 Symmetry operations used in ECPInt.
 ECPInt:  NShTT=   11476 NPrTT=   36592 LenC2=   10751 LenP2D=   25918.
 LDataN:  DoStor=T MaxTD1= 7 Len=  274
 D1PCM: C-PCM CHGder 1st derivatives, ID1Alg=3 FixD1E=F DoIter=F DoCFld=F I1PDM=0.
 GePol: Maximum number of non-zero 1st derivatives   =     228
 Leave Link  701 at Tue Mar 10 14:55:51 2020, MaxMem=  6979321856 cpu:              19.8 elap:               1.7
 (Enter /opt/g16/l702.exe)
 L702 exits ... SP integral derivatives will be done elsewhere.
 Leave Link  702 at Tue Mar 10 14:55:51 2020, MaxMem=  6979321856 cpu:               0.2 elap:               0.0
 (Enter /opt/g16/l703.exe)
 Integral derivatives from FoFJK, PRISM(SPDF).
 Compute integral first derivatives, UseDBF=T ICtDFT=           0.
 Calling FoFJK, ICntrl=      2527 FMM=F ISym2X=0 I1Cent= 4 IOpClX= 0 NMat=1 NMatS=1 NMatT=0.
 FoFJK:  IHMeth= 1 ICntrl=    2527 DoSepK=F KAlg= 0 I1Cent=           4 FoldK=F
 IRaf=         0 NMat=       1 IRICut=       1 DoRegI=T DoRafI=F ISym2E= 0 IDoP0=0 IntGTp=1.
 FoFCou: FMM=F IPFlag=           0 FMFlag=      100000 FMFlg1=         800
         NFxFlg=           0 DoJE=F BraDBF=F KetDBF=T FulRan=T
         wScrn=  0.000000 ICntrl=      2527 IOpCl=  0 I1Cent=           4 NGrid=           0
         NMat0=    1 NMatS0=      1 NMatT0=    0 NMatD0=    1 NMtDS0=    0 NMtDT0=    0
 Symmetry not used in FoFCou.
 Leave Link  703 at Tue Mar 10 14:55:54 2020, MaxMem=  6979321856 cpu:              44.9 elap:               3.8
 (Enter /opt/g16/l716.exe)
 Dipole        =-5.03749198D+00-1.96030006D-02 1.00761865D-02
 ***** Axes restored to original set *****
 -------------------------------------------------------------------
 Center     Atomic                   Forces (Hartrees/Bohr)
 Number     Number              X              Y              Z
 -------------------------------------------------------------------
      1        6           0.000771293    0.003146839    0.001227387
      2        6          -0.002844238    0.001608379   -0.000557343
      3        6           0.005662771   -0.005175932    0.000093012
      4        6          -0.002934397   -0.004929888    0.002145608
      5        6           0.006818975    0.001170632   -0.007181704
      6        6          -0.005186140    0.003839848    0.002402409
      7        6           0.006871802    0.004689388   -0.000108127
      8       16          -0.048861678   -0.000318821    0.004143761
      9        8           0.022304637    0.000679217    0.017391592
     10        8           0.015837695   -0.014707515   -0.009177945
     11        8           0.015536199    0.014312097   -0.009354107
     12        1          -0.000789430    0.002173691   -0.000027970
     13        1          -0.003394502   -0.003350044    0.000893521
     14        1          -0.003839289   -0.002815924   -0.000910152
     15        1          -0.004230928    0.002224908    0.000443805
     16        1           0.000944240    0.002237502   -0.000948203
     17        1           0.001079610   -0.002165710   -0.000906365
     18        1          -0.003746622   -0.002618666    0.000430820
 -------------------------------------------------------------------
 Cartesian Forces:  Max     0.048861678 RMS     0.009364728
 Leave Link  716 at Tue Mar 10 14:55:54 2020, MaxMem=  6979321856 cpu:               0.3 elap:               0.0
 (Enter /opt/g16/l103.exe)

 GradGradGradGradGradGradGradGradGradGradGradGradGradGradGradGradGradGrad
 Berny optimization.
 FormGI is forming the generalized inverse of G from B-inverse, IUseBI=4.
 Internal  Forces:  Max     0.026929520 RMS     0.007376522
 Search for a local minimum.
 Step number   1 out of a maximum of   94
 All quantities printed in internal units (Hartrees-Bohrs-Radians)
 RMS Force = .73765D-02 SwitMx=.10000D-02 MixMth= 1
 Mixed Optimization -- RFO/linear search
 Second derivative matrix not updated -- first step.
 ITU=  0
     Eigenvalues ---    0.00230   0.00776   0.01378   0.01557   0.02059
     Eigenvalues ---    0.02088   0.02097   0.02120   0.02136   0.02137
     Eigenvalues ---    0.02139   0.07263   0.07371   0.13203   0.13331
     Eigenvalues ---    0.15997   0.15998   0.15999   0.15999   0.16000
     Eigenvalues ---    0.16000   0.16000   0.22000   0.22971   0.23985
     Eigenvalues ---    0.24957   0.24987   0.25000   0.25000   0.25000
     Eigenvalues ---    0.25042   0.32453   0.34225   0.34266   0.34291
     Eigenvalues ---    0.35162   0.35169   0.35199   0.35216   0.41740
     Eigenvalues ---    0.41794   0.45333   0.45719   0.46218   0.46257
     Eigenvalues ---    0.91135   0.91360   0.91944
 RFO step:  Lambda=-1.41536929D-02 EMin= 2.30000000D-03
 Linear search not attempted -- first point.
 Iteration  1 RMS(Cart)=  0.06451611 RMS(Int)=  0.00298962
 Iteration  2 RMS(Cart)=  0.00305064 RMS(Int)=  0.00159436
 Iteration  3 RMS(Cart)=  0.00001183 RMS(Int)=  0.00159434
 Iteration  4 RMS(Cart)=  0.00000004 RMS(Int)=  0.00159434
 ITry= 1 IFail=0 DXMaxC= 3.20D-01 DCOld= 1.00D+10 DXMaxT= 3.00D-01 DXLimC= 3.00D+00 Rises=F
 Variable       Old X    -DE/DX   Delta X   Delta X   Delta X     New X
                                 (Linear)    (Quad)   (Total)
    R1        2.83322   0.00733   0.00000   0.02164   0.02164   2.85486
    R2        2.06884   0.00229   0.00000   0.00643   0.00643   2.07527
    R3        2.06842   0.00348   0.00000   0.00975   0.00975   2.07816
    R4        2.06952   0.00339   0.00000   0.00951   0.00951   2.07903
    R5        2.65088  -0.00085   0.00000  -0.00196  -0.00202   2.64886
    R6        2.65236   0.00004   0.00000  -0.00005  -0.00012   2.65224
    R7        2.63862   0.00352   0.00000   0.00740   0.00741   2.64603
    R8        2.05325   0.00402   0.00000   0.01098   0.01098   2.06423
    R9        2.63908   0.00122   0.00000   0.00271   0.00277   2.64185
   R10        2.05413   0.00247   0.00000   0.00675   0.00675   2.06088
   R11        2.63881   0.00251   0.00000   0.00540   0.00546   2.64427
   R12        3.42802   0.00427   0.00000   0.01613   0.01613   3.44414
   R13        2.63826   0.00215   0.00000   0.00448   0.00448   2.64274
   R14        2.05401   0.00247   0.00000   0.00674   0.00674   2.06075
   R15        2.05353   0.00411   0.00000   0.01123   0.01123   2.06476
   R16        2.75750   0.02427   0.00000   0.02600   0.02600   2.78350
   R17        2.76012   0.01954   0.00000   0.02107   0.02107   2.78119
   R18        2.76114   0.01901   0.00000   0.02054   0.02054   2.78168
    A1        1.94669  -0.00083   0.00000  -0.00224  -0.00227   1.94443
    A2        1.92718   0.00270   0.00000   0.01451   0.01448   1.94165
    A3        1.91801   0.00325   0.00000   0.01716   0.01713   1.93514
    A4        1.88151  -0.00037   0.00000   0.00071   0.00068   1.88219
    A5        1.88306  -0.00084   0.00000  -0.00282  -0.00284   1.88022
    A6        1.90623  -0.00417   0.00000  -0.02881  -0.02884   1.87738
    A7        2.10853   0.00255   0.00000   0.01057   0.01057   2.11910
    A8        2.09055   0.00331   0.00000   0.01346   0.01347   2.10402
    A9        2.08366  -0.00585   0.00000  -0.02368  -0.02375   2.05991
   A10        2.10110   0.00347   0.00000   0.01335   0.01337   2.11447
   A11        2.10749  -0.00443   0.00000  -0.02209  -0.02211   2.08538
   A12        2.07449   0.00096   0.00000   0.00883   0.00882   2.08330
   A13        2.08631   0.00306   0.00000   0.01211   0.01226   2.09857
   A14        2.10962  -0.00176   0.00000  -0.00738  -0.00746   2.10216
   A15        2.08718  -0.00129   0.00000  -0.00467  -0.00475   2.08242
   A16        2.10791  -0.00733   0.00000  -0.02749  -0.02771   2.08020
   A17        2.08542   0.00392   0.00000   0.01595   0.01542   2.10084
   A18        2.08834   0.00349   0.00000   0.01433   0.01380   2.10214
   A19        2.08515   0.00344   0.00000   0.01363   0.01377   2.09892
   A20        2.08850  -0.00161   0.00000  -0.00617  -0.00624   2.08226
   A21        2.10946  -0.00183   0.00000  -0.00741  -0.00748   2.10198
   A22        2.10216   0.00321   0.00000   0.01211   0.01211   2.11426
   A23        2.10339  -0.00370   0.00000  -0.01804  -0.01806   2.08533
   A24        2.07751   0.00050   0.00000   0.00606   0.00605   2.08356
   A25        1.77748   0.02693   0.00000   0.10054   0.09480   1.87229
   A26        1.79765   0.02369   0.00000   0.09046   0.08477   1.88241
   A27        1.79695   0.02391   0.00000   0.09116   0.08546   1.88241
   A28        2.01769  -0.01838   0.00000  -0.07135  -0.07753   1.94016
   A29        2.01840  -0.01858   0.00000  -0.07250  -0.07868   1.93972
   A30        2.00528  -0.01574   0.00000  -0.05568  -0.06175   1.94353
    D1       -0.09889   0.00019   0.00000   0.00597   0.00603  -0.09286
    D2        3.07479  -0.00008   0.00000  -0.00662  -0.00667   3.06812
    D3       -2.19058  -0.00061   0.00000  -0.00315  -0.00309  -2.19367
    D4        0.98311  -0.00088   0.00000  -0.01574  -0.01580   0.96731
    D5        1.98865   0.00075   0.00000   0.01233   0.01238   2.00103
    D6       -1.12085   0.00048   0.00000  -0.00026  -0.00032  -1.12117
    D7       -3.09703  -0.00059   0.00000  -0.01672  -0.01662  -3.11365
    D8        0.02873  -0.00032   0.00000  -0.00904  -0.00904   0.01970
    D9        0.01259  -0.00015   0.00000  -0.00350  -0.00357   0.00902
   D10        3.13836   0.00012   0.00000   0.00418   0.00402  -3.14081
   D11        3.09676   0.00059   0.00000   0.01699   0.01690   3.11366
   D12       -0.02764   0.00029   0.00000   0.00829   0.00830  -0.01934
   D13       -0.01319   0.00017   0.00000   0.00395   0.00401  -0.00919
   D14       -3.13760  -0.00013   0.00000  -0.00474  -0.00459   3.14099
   D15       -0.00475  -0.00001   0.00000   0.00150   0.00144  -0.00331
   D16        3.12331   0.00017   0.00000   0.00615   0.00612   3.12943
   D17       -3.13081  -0.00023   0.00000  -0.00576  -0.00586  -3.13667
   D18       -0.00275  -0.00005   0.00000  -0.00111  -0.00118  -0.00393
   D19       -0.00265   0.00012   0.00000  -0.00009   0.00017  -0.00249
   D20        3.07956   0.00180   0.00000   0.05492   0.05465   3.13421
   D21       -3.13089  -0.00006   0.00000  -0.00466  -0.00444  -3.13533
   D22       -0.04868   0.00162   0.00000   0.05035   0.05005   0.00137
   D23        0.00206  -0.00010   0.00000   0.00053   0.00026   0.00233
   D24        3.13047   0.00009   0.00000   0.00538   0.00514   3.13561
   D25       -3.08005  -0.00180   0.00000  -0.05462  -0.05432  -3.13437
   D26        0.04835  -0.00161   0.00000  -0.04977  -0.04944  -0.00108
   D27        1.58222  -0.00068   0.00000  -0.02552  -0.02592   1.55631
   D28       -2.60475  -0.00139   0.00000  -0.03043  -0.03076  -2.63551
   D29       -0.51450   0.00020   0.00000  -0.01955  -0.02003  -0.53453
   D30       -1.61807   0.00061   0.00000   0.02742   0.02783  -1.59024
   D31        0.47814  -0.00010   0.00000   0.02251   0.02298   0.50112
   D32        2.56839   0.00149   0.00000   0.03339   0.03372   2.60211
   D33        0.00593  -0.00002   0.00000  -0.00236  -0.00230   0.00363
   D34        3.13059   0.00024   0.00000   0.00597   0.00606   3.13664
   D35       -3.12231  -0.00022   0.00000  -0.00729  -0.00725  -3.12956
   D36        0.00234   0.00004   0.00000   0.00104   0.00111   0.00345
         Item               Value     Threshold  Converged?
 Maximum Force            0.026930     0.000450     NO 
 RMS     Force            0.007377     0.000300     NO 
 Maximum Displacement     0.319898     0.001800     NO 
 RMS     Displacement     0.065589     0.001200     NO 
 Predicted change in Energy=-7.505805D-03
 Lowest energy point so far.  Saving SCF results.
 GradGradGradGradGradGradGradGradGradGradGradGradGradGradGradGradGradGrad

 Leave Link  103 at Tue Mar 10 14:55:55 2020, MaxMem=  6979321856 cpu:               0.4 elap:               0.1
 (Enter /opt/g16/l202.exe)
                          Input orientation:                          
 ---------------------------------------------------------------------
 Center     Atomic      Atomic             Coordinates (Angstroms)
 Number     Number       Type             X           Y           Z
 ---------------------------------------------------------------------
      1          6           0        1.074595    0.043620    0.191974
      2          6           0        2.578232    0.065727    0.047458
      3          6           0        3.286560    1.272435   -0.035809
      4          6           0        4.676695    1.286262   -0.202962
      5          6           0        5.387771    0.085495   -0.286355
      6          6           0        4.693571   -1.126214   -0.197720
      7          6           0        3.305129   -1.132336   -0.030598
      8         16           0        7.195826    0.099315   -0.515442
      9          8           0        7.806282    0.130763    0.824697
     10          8           0        7.568204   -1.126221   -1.240303
     11          8           0        7.543943    1.304420   -1.285722
     12          1           0        0.668634    1.056776    0.313302
     13          1           0        0.766826   -0.549511    1.065387
     14          1           0        0.601960   -0.402591   -0.695662
     15          1           0        2.744680    2.219076    0.022965
     16          1           0        5.214909    2.231821   -0.277699
     17          1           0        5.245613   -2.064020   -0.268175
     18          1           0        2.777000   -2.086777    0.032225
 ---------------------------------------------------------------------
                    Distance matrix (angstroms):
                    1          2          3          4          5
     1  C    0.000000
     2  C    1.510728   0.000000
     3  C    2.540603   1.401716   0.000000
     4  C    3.830831   2.440484   1.400216   0.000000
     5  C    4.339821   2.829369   2.426249   1.398007   0.000000
     6  C    3.823266   2.440387   2.785572   2.412540   1.399289
     7  C    2.531342   1.403505   2.404849   2.785771   2.426092
     8  S    6.162225   4.651898   4.109576   2.802233   1.822563
     9  O    6.761919   5.285909   4.740440   3.490784   2.661895
    10  O    6.751807   5.289507   5.053398   3.906017   2.670685
    11  O    6.754678   5.288668   4.437185   3.064932   2.670878
    12  H    1.098186   2.167815   2.649892   4.047685   4.855227
    13  H    1.099717   2.167000   3.298663   4.501760   4.856292
    14  H    1.100174   2.162684   3.232367   4.438293   4.828017
    15  H    2.747792   2.159911   1.092345   2.157283   3.410832
    16  H    4.706488   3.427792   2.167363   1.090570   2.153293
    17  H    4.695879   3.427881   3.876057   3.398869   2.154288
    18  H    2.731720   2.161715   3.398321   3.878343   3.411214
                    6          7          8          9         10
     6  C    0.000000
     7  C    1.398477   0.000000
     8  S    2.804309   4.109691   0.000000
     9  O    3.509174   4.752613   1.472963   0.000000
    10  O    3.057858   4.431392   1.471742   2.429180   0.000000
    11  O    3.900814   5.047837   1.472004   2.429025   2.431186
    12  H    4.607245   3.444066   6.648894   7.215612   7.401570
    13  H    4.165015   2.825570   6.652220   7.076344   7.204689
    14  H    4.184837   2.877840   6.615396   7.382291   7.024872
    15  H    3.877866   3.398373   4.959433   5.533863   6.004435
    16  H    3.399204   3.876323   2.920297   3.513536   4.212012
    17  H    1.090502   2.165631   2.923096   3.545204   2.686807
    18  H    2.156107   1.092622   4.960338   5.553303   5.049517
                   11         12         13         14         15
    11  O    0.000000
    12  H    7.063150   0.000000
    13  H    7.409054   1.776353   0.000000
    14  H    7.173088   1.775445   1.774841   0.000000
    15  H    5.057883   2.396916   3.558598   3.461331   0.000000
    16  H    2.701959   4.732720   5.415269   5.328614   2.488492
    17  H    4.202870   5.570119   4.912398   4.950415   4.968334
    18  H    5.996744   3.795542   2.733388   2.845541   4.305984
                   16         17         18
    16  H    0.000000
    17  H    4.295962   0.000000
    18  H    4.968878   2.486927   0.000000
 Stoichiometry    C7H7O3S(1-)
 Framework group  C1[X(C7H7O3S)]
 Deg. of freedom    48
 Full point group                 C1      NOp   1
 RotChk:  IX=0 Diff= 6.64D-03
 Largest Abelian subgroup         C1      NOp   1
 Largest concise Abelian subgroup C1      NOp   1
                         Standard orientation:                         
 ---------------------------------------------------------------------
 Center     Atomic      Atomic             Coordinates (Angstroms)
 Number     Number       Type             X           Y           Z
 ---------------------------------------------------------------------
      1          6           0       -4.193702   -0.003711   -0.023786
      2          6           0       -2.683373    0.005281    0.009741
      3          6           0       -1.959794    1.205790    0.014009
      4          6           0       -0.559581    1.207556    0.011673
      5          6           0        0.145993    0.000666    0.008978
      6          6           0       -0.564232   -1.204980    0.011688
      7          6           0       -1.962694   -1.199057    0.014217
      8         16           0        1.968495   -0.001178   -0.005675
      9          8           0        2.417198    0.022231    1.397085
     10          8           0        2.413036   -1.228574   -0.685313
     11          8           0        2.415240    1.202270   -0.726041
     12          1           0       -4.602376    1.012785    0.051933
     13          1           0       -4.607247   -0.595768    0.805566
     14          1           0       -4.562389   -0.443970   -0.962202
     15          1           0       -2.496647    2.157105    0.011414
     16          1           0       -0.008181    2.148426    0.003613
     17          1           0       -0.015838   -2.147529    0.003906
     18          1           0       -2.502752   -2.148875    0.011605
 ---------------------------------------------------------------------
 Rotational constants (GHZ):           2.7185923           0.5466761           0.4989855
 Leave Link  202 at Tue Mar 10 14:55:55 2020, MaxMem=  6979321856 cpu:               0.1 elap:               0.0
 (Enter /opt/g16/l301.exe)
 Standard basis: def2TZVP (5D, 7F)
 Ernie: Thresh=  0.10000D-02 Tol=  0.10000D-05 Strict=F.
 There are   444 symmetry adapted cartesian basis functions of A   symmetry.
 There are   389 symmetry adapted basis functions of A   symmetry.
   389 basis functions,   635 primitive gaussians,   444 cartesian basis functions
    45 alpha electrons       45 beta electrons
       nuclear repulsion energy       707.0460609554 Hartrees.
 IExCor= 1009 DFT=T Ex=PBE Corr=PBE ExCW=0 ScaHFX=  0.000000
 ScaDFX=  1.000000  1.000000  1.000000  1.000000 ScalE2=  1.000000  1.000000
 IRadAn=      5 IRanWt=     -1 IRanGd=            0 ICorTp=0 IEmpDi=  4
 NAtoms=   18 NActive=   18 NUniq=   18 SFac= 1.00D+00 NAtFMM=   60 NAOKFM=F Big=F
 Integral buffers will be    131072 words long.
 Raffenetti 2 integral format.
 Two-electron integral symmetry is turned on.
 Standard density basis: W06 (5D, 7F)
   618 Density fitting functions
 There are   618 symmetry adapted density basis functions of A   symmetry.
 ------------------------------------------------------------------------------
 Polarizable Continuum Model (PCM)
 =================================
 Model                : C-PCM.
 Atomic radii         : UFF (Universal Force Field).
 Polarization charges : Total charges.
 Charge compensation  : None.
 Solution method      : On-the-fly selection.
 Cavity type          : Scaled VdW (van der Waals Surface) (Alpha=1.100).
 Cavity algorithm     : GePol (No added spheres)
                        Default sphere list used, NSphG=   18.
                        Lebedev-Laikov grids with approx.  5.0 points / Ang**2.
                        Smoothing algorithm: York/Karplus (Gamma=1.0000).
                        Polarization charges: spherical gaussians, with
                                              point-specific exponents (IZeta= 3).
                        Self-potential: point-specific (ISelfS= 7).
                        Self-field    : sphere-specific E.n sum rule (ISelfD= 2).
 1st derivatives      : Analytical E(r).r(x)/FMM algorithm (CHGder, D1EAlg=3).
                        Cavity 1st derivative terms included.
 Solvent              : Generic,
                        Eps                           = 999.000000
                        Eps(infinity)                 =   0.000000
                        RSolv                         =   0.000000 Ang.
                        Molar volume                  =   0.000000 cm**3/mol
                        Thermal expansion coefficient =   0.000000 K**-1
                        Absolute temperature          = 298.150000 K
                        Numeral density               =   0.000000 Ang**-3
                        Hydrogen bond acidity         =   0.000000
                        Hydrogen bond basicity        =   0.000000
                        Surface tension at interface  =   0.000000 (cal/mol)*Ang**-2
                        Carbon aromaticity            =   0.000000
                        Electronegative halogenicity  =   0.000000
 ------------------------------------------------------------------------------
 Spheres list:
 ISph  on   Nord     Re0    Alpha      Xe            Ye            Ze
    1   C      1    1.9255  1.100     -4.193702     -0.003711     -0.023786
    2   C      2    1.9255  1.100     -2.683373      0.005281      0.009741
    3   C      3    1.9255  1.100     -1.959794      1.205790      0.014009
    4   C      4    1.9255  1.100     -0.559581      1.207556      0.011673
    5   C      5    1.9255  1.100      0.145993      0.000666      0.008978
[...]
    11  O    0.000000
    12  H    7.132226   0.000000
    13  H    7.349294   1.782332   0.000000
    14  H    6.987697   1.768318   1.775350   0.000000
    15  H    5.030803   2.629968   3.783498   2.966292   0.000000
    16  H    2.706167   4.847278   5.556715   5.019661   2.480432
    17  H    4.133378   5.461305   4.736069   5.265139   4.970008
    18  H    5.926986   3.633385   2.409737   3.356819   4.306340
                   16         17         18
    16  H    0.000000
    17  H    4.302169   0.000000
    18  H    4.969429   2.488075   0.000000
 Stoichiometry    C7H7O3S(1-)
 Framework group  C1[X(C7H7O3S)]
 Deg. of freedom    48
 Full point group                 C1      NOp   1
 RotChk:  IX=3 Diff= 6.29D-16
 Largest Abelian subgroup         C1      NOp   1
 Largest concise Abelian subgroup C1      NOp   1
                         Standard orientation:                         
 ---------------------------------------------------------------------
 Center     Atomic      Atomic             Coordinates (Angstroms)
 Number     Number       Type             X           Y           Z
 ---------------------------------------------------------------------
      1          6           0       -4.164153    0.005203    0.009192
      2          6           0       -2.658260   -0.003050    0.009403
      3          6           0       -1.931236    1.199905   -0.001172
      4          6           0       -0.537126    1.202395   -0.022919
      5          6           0        0.167433   -0.008291   -0.033593
      6          6           0       -0.539338   -1.213526   -0.022693
      7          6           0       -1.936995   -1.205457   -0.001121
      8         16           0        1.968884   -0.000027    0.002109
      9          8           0        2.320459    0.208536    1.427196
     10          8           0        2.389400   -1.322045   -0.512478
     11          8           0        2.379111    1.127651   -0.864424
     12          1           0       -4.560941    0.732876    0.731969
     13          1           0       -4.570341   -0.984689    0.255957
     14          1           0       -4.557209    0.289781   -0.979931
     15          1           0       -2.468911    2.151590    0.005751
     16          1           0        0.011087    2.145781   -0.040282
     17          1           0        0.009070   -2.156388   -0.038102
     18          1           0       -2.478614   -2.154740    0.005967
 ---------------------------------------------------------------------
 Rotational constants (GHZ):           2.6691633           0.5581160           0.5083409
 Leave Link  202 at Tue Mar 10 15:18:16 2020, MaxMem=  6979321856 cpu:               0.1 elap:               0.0
 (Enter /opt/g16/l601.exe)
 Copying SCF densities to generalized density rwf, IOpCl= 0 IROHF=0.

 **********************************************************************

            Population analysis using the SCF Density.

 **********************************************************************

 Orbital symmetries:
       Occupied  (A) (A) (A) (A) (A) (A) (A) (A) (A) (A) (A) (A)
                 (A) (A) (A) (A) (A) (A) (A) (A) (A) (A) (A) (A)
                 (A) (A) (A) (A) (A) (A) (A) (A) (A) (A) (A) (A)
                 (A) (A) (A) (A) (A) (A) (A) (A) (A)
       Virtual   (A) (A) (A) (A) (A) (A) (A) (A) (A) (A) (A) (A)
                 (A) (A) (A) (A) (A) (A) (A) (A) (A) (A) (A) (A)
                 (A) (A) (A) (A) (A) (A) (A) (A) (A) (A) (A) (A)
                 (A) (A) (A) (A) (A) (A) (A) (A) (A) (A) (A) (A)
                 (A) (A) (A) (A) (A) (A) (A) (A) (A) (A) (A) (A)
                 (A) (A) (A) (A) (A) (A) (A) (A) (A) (A) (A) (A)
                 (A) (A) (A) (A) (A) (A) (A) (A) (A) (A) (A) (A)
                 (A) (A) (A) (A) (A) (A) (A) (A) (A) (A) (A) (A)
                 (A) (A) (A) (A) (A) (A) (A) (A) (A) (A) (A) (A)
                 (A) (A) (A) (A) (A) (A) (A) (A) (A) (A) (A) (A)
                 (A) (A) (A) (A) (A) (A) (A) (A) (A) (A) (A) (A)
                 (A) (A) (A) (A) (A) (A) (A) (A) (A) (A) (A) (A)
                 (A) (A) (A) (A) (A) (A) (A) (A) (A) (A) (A) (A)
                 (A) (A) (A) (A) (A) (A) (A) (A) (A) (A) (A) (A)
                 (A) (A) (A) (A) (A) (A) (A) (A) (A) (A) (A) (A)
                 (A) (A) (A) (A) (A) (A) (A) (A) (A) (A) (A) (A)
                 (A) (A) (A) (A) (A) (A) (A) (A) (A) (A) (A) (A)
                 (A) (A) (A) (A) (A) (A) (A) (A) (A) (A) (A) (A)
                 (A) (A) (A) (A) (A) (A) (A) (A) (A) (A) (A) (A)
                 (A) (A) (A) (A) (A) (A) (A) (A) (A) (A) (A) (A)
                 (A) (A) (A) (A) (A) (A) (A) (A) (A) (A) (A) (A)
                 (A) (A) (A) (A) (A) (A) (A) (A) (A) (A) (A) (A)
                 (A) (A) (A) (A) (A) (A) (A) (A) (A) (A) (A) (A)
                 (A) (A) (A) (A) (A) (A) (A) (A) (A) (A) (A) (A)
                 (A) (A) (A) (A) (A) (A) (A) (A) (A) (A) (A) (A)
                 (A) (A) (A) (A) (A) (A) (A) (A) (A) (A) (A) (A)
                 (A) (A) (A) (A) (A) (A) (A) (A) (A) (A) (A) (A)
                 (A) (A) (A) (A) (A) (A) (A) (A) (A) (A) (A) (A)
                 (A) (A) (A) (A) (A) (A) (A) (A)
 The electronic state is 1-A.
 Alpha  occ. eigenvalues --  -88.19394 -18.70603 -18.70568 -18.70499  -9.90242
 Alpha  occ. eigenvalues --   -9.90163  -9.89273  -9.89182  -9.88912  -9.88897
 Alpha  occ. eigenvalues --   -9.88024  -7.78744  -5.80817  -5.80749  -5.80748
 Alpha  occ. eigenvalues --   -0.99804  -0.86963  -0.86764  -0.78572  -0.70768
 Alpha  occ. eigenvalues --   -0.67816  -0.62886  -0.55076  -0.55015  -0.50475
 Alpha  occ. eigenvalues --   -0.45044  -0.42165  -0.40758  -0.38951  -0.38681
 Alpha  occ. eigenvalues --   -0.38089  -0.37608  -0.37399  -0.34012  -0.32785
 Alpha  occ. eigenvalues --   -0.32037  -0.29848  -0.27888  -0.27832  -0.25626
 Alpha  occ. eigenvalues --   -0.24245  -0.24127  -0.23489  -0.21293  -0.20069
 Alpha virt. eigenvalues --   -0.05148  -0.04774   0.02948   0.04463   0.06102
 Alpha virt. eigenvalues --    0.06713   0.07646   0.09075   0.09863   0.10227
 Alpha virt. eigenvalues --    0.11069   0.11592   0.12394   0.13549   0.14086
 Alpha virt. eigenvalues --    0.14430   0.16409   0.17337   0.19150   0.20257
 Alpha virt. eigenvalues --    0.20737   0.21524   0.22194   0.22974   0.24142
 Alpha virt. eigenvalues --    0.25447   0.25576   0.27123   0.28564   0.29341
 Alpha virt. eigenvalues --    0.30588   0.31221   0.31647   0.32193   0.32713
 Alpha virt. eigenvalues --    0.33081   0.34216   0.36177   0.37743   0.38689
 Alpha virt. eigenvalues --    0.39180   0.39512   0.40225   0.40831   0.42554
 Alpha virt. eigenvalues --    0.42824   0.43078   0.43223   0.44165   0.45783
 Alpha virt. eigenvalues --    0.46017   0.47790   0.48212   0.49671   0.50452
 Alpha virt. eigenvalues --    0.51935   0.53845   0.54616   0.56015   0.56596
 Alpha virt. eigenvalues --    0.57229   0.57581   0.59763   0.59908   0.61453
 Alpha virt. eigenvalues --    0.62779   0.64004   0.67472   0.68327   0.69201
 Alpha virt. eigenvalues --    0.69701   0.71493   0.72016   0.72977   0.73238
 Alpha virt. eigenvalues --    0.75203   0.78981   0.80097   0.81416   0.83250
 Alpha virt. eigenvalues --    0.83305   0.84981   0.85239   0.88641   0.89405
 Alpha virt. eigenvalues --    0.90613   0.90869   0.92866   0.96184   0.96642
 Alpha virt. eigenvalues --    0.98045   1.01137   1.01827   1.04514   1.08372
 Alpha virt. eigenvalues --    1.09954   1.11446   1.14338   1.15858   1.16400
 Alpha virt. eigenvalues --    1.17013   1.19350   1.20263   1.22359   1.23504
 Alpha virt. eigenvalues --    1.24046   1.26761   1.28238   1.31295   1.32175
 Alpha virt. eigenvalues --    1.34536   1.36609   1.38133   1.38915   1.41545
 Alpha virt. eigenvalues --    1.42701   1.43681   1.45985   1.46827   1.47331
 Alpha virt. eigenvalues --    1.48623   1.49998   1.50455   1.51362   1.52472
 Alpha virt. eigenvalues --    1.53368   1.54572   1.55157   1.56860   1.57472
 Alpha virt. eigenvalues --    1.59365   1.59948   1.60265   1.61328   1.63948
 Alpha virt. eigenvalues --    1.66803   1.68265   1.69331   1.73951   1.76829
 Alpha virt. eigenvalues --    1.78236   1.78772   1.80650   1.81825   1.83641
 Alpha virt. eigenvalues --    1.84719   1.89031   1.91161   1.92353   1.93396
 Alpha virt. eigenvalues --    1.95653   1.97980   1.99296   2.01445   2.04328
 Alpha virt. eigenvalues --    2.06289   2.06706   2.07950   2.08449   2.09616
 Alpha virt. eigenvalues --    2.12265   2.14714   2.15502   2.16010   2.16974
 Alpha virt. eigenvalues --    2.19158   2.20986   2.25950   2.27470   2.28320
 Alpha virt. eigenvalues --    2.29733   2.30804   2.31629   2.32830   2.36286
 Alpha virt. eigenvalues --    2.36960   2.38109   2.39143   2.41226   2.43822
 Alpha virt. eigenvalues --    2.44288   2.46263   2.47716   2.50623   2.52175
 Alpha virt. eigenvalues --    2.52849   2.55144   2.57168   2.58452   2.60203
 Alpha virt. eigenvalues --    2.62910   2.64216   2.67046   2.67580   2.68843
 Alpha virt. eigenvalues --    2.71058   2.71960   2.73481   2.75589   2.76316
 Alpha virt. eigenvalues --    2.77973   2.79881   2.82376   2.82522   2.82739
 Alpha virt. eigenvalues --    2.84409   2.84577   2.86558   2.90941   2.91536
 Alpha virt. eigenvalues --    2.92302   2.93352   2.94865   2.96665   2.98118
 Alpha virt. eigenvalues --    3.00608   3.01562   3.03014   3.03411   3.05079
 Alpha virt. eigenvalues --    3.06150   3.06561   3.07750   3.08063   3.09036
 Alpha virt. eigenvalues --    3.12039   3.14253   3.14623   3.16197   3.19530
 Alpha virt. eigenvalues --    3.21950   3.22803   3.24032   3.24171   3.25025
 Alpha virt. eigenvalues --    3.26420   3.28969   3.31252   3.32947   3.33457
 Alpha virt. eigenvalues --    3.34801   3.37541   3.38853   3.39831   3.42418
 Alpha virt. eigenvalues --    3.44228   3.47239   3.49878   3.52949   3.56608
 Alpha virt. eigenvalues --    3.60023   3.62273   3.66227   3.67178   3.71561
 Alpha virt. eigenvalues --    3.72280   3.75000   3.79623   3.79671   3.83273
 Alpha virt. eigenvalues --    3.91837   3.93038   3.99022   3.99330   4.01755
 Alpha virt. eigenvalues --    4.05054   4.06764   4.09344   4.11588   4.12138
 Alpha virt. eigenvalues --    4.14164   4.16171   4.17665   4.20812   4.23494
 Alpha virt. eigenvalues --    4.28290   4.32685   4.34619   4.42256   4.47982
 Alpha virt. eigenvalues --    4.56259   4.57285   4.58607   4.61382   4.74338
 Alpha virt. eigenvalues --    4.78647   4.86902   4.87615   4.99777   5.01676
 Alpha virt. eigenvalues --    5.04252   5.05350   5.05522   5.05874   5.06054
 Alpha virt. eigenvalues --    5.06991   5.07559   5.08469   5.09931   5.15583
 Alpha virt. eigenvalues --    5.17327   5.18998   5.22134   5.22902   5.24737
 Alpha virt. eigenvalues --    5.32611   5.33966   5.39521   5.42145   5.43159
 Alpha virt. eigenvalues --    5.51685   5.52759   5.55565   5.57450   5.72531
 Alpha virt. eigenvalues --    6.17990   6.18769   6.21009   6.27626   6.28664
 Alpha virt. eigenvalues --    6.35442   6.55403   6.59437   6.60087   6.60711
 Alpha virt. eigenvalues --    6.72157   6.75207   6.77047   6.81706   6.83006
 Alpha virt. eigenvalues --    9.30210   9.40401   9.46508  21.69668  22.11423
 Alpha virt. eigenvalues --   22.15097  22.38904  22.40942  22.47224  22.65035
 Alpha virt. eigenvalues --   22.96702  43.06908  43.27043  43.39015
          Condensed to atoms (all electrons):
               1          2          3          4          5          6
     1  C    5.012707   0.351103  -0.105348   0.024265  -0.012086   0.028510
     2  C    0.351103   5.102879   0.254654   0.173797  -0.281188   0.155636
     3  C   -0.105348   0.254654   5.344975   0.157829   0.219150  -0.173409
     4  C    0.024265   0.173797   0.157829   5.535317   0.048167   0.021347
     5  C   -0.012086  -0.281188   0.219150   0.048167   5.981886   0.082301
     6  C    0.028510   0.155636  -0.173409   0.021347   0.082301   5.496298
     7  C   -0.089176   0.318785   0.073044  -0.155571   0.186144   0.224755
     8  S   -0.000130  -0.005536   0.013846  -0.023017   0.178320  -0.039541
     9  O   -0.000014  -0.001249   0.003137   0.008834  -0.102432  -0.003516
    10  O   -0.000004  -0.000067  -0.001084   0.014900  -0.118903   0.003635
    11  O   -0.000005  -0.000534   0.004489   0.008061  -0.113953   0.006602
    12  H    0.401003  -0.043385   0.002388   0.000052   0.000392  -0.000988
    13  H    0.413960  -0.056331   0.005966  -0.000643   0.000231   0.000930
    14  H    0.380979  -0.025688   0.000797  -0.000216   0.000466  -0.000892
    15  H   -0.010202  -0.089388   0.468094  -0.082449   0.026607  -0.005745
    16  H   -0.000221   0.021483  -0.068956   0.462598  -0.107246   0.011233
    17  H   -0.000400   0.020021  -0.004177   0.009653  -0.104501   0.455506
    18  H   -0.013464  -0.081222   0.019168  -0.005981   0.025691  -0.077662
               7          8          9         10         11         12
     1  C   -0.089176  -0.000130  -0.000014  -0.000004  -0.000005   0.401003
     2  C    0.318785  -0.005536  -0.001249  -0.000067  -0.000534  -0.043385
     3  C    0.073044   0.013846   0.003137  -0.001084   0.004489   0.002388
     4  C   -0.155571  -0.023017   0.008834   0.014900   0.008061   0.000052
     5  C    0.186144   0.178320  -0.102432  -0.118903  -0.113953   0.000392
     6  C    0.224755  -0.039541  -0.003516   0.003635   0.006602  -0.000988
     7  C    5.233001   0.013687   0.001904   0.002920  -0.000105   0.001043
     8  S    0.013687  13.546349   0.559499   0.566669   0.554686   0.000003
     9  O    0.001904   0.559499   8.245617  -0.088589  -0.089568  -0.000000
    10  O    0.002920   0.566669  -0.088589   8.199931  -0.077683   0.000000
    11  O   -0.000105   0.554686  -0.089568  -0.077683   8.217603   0.000000
    12  H    0.001043   0.000003  -0.000000   0.000000   0.000000   0.553178
    13  H    0.001393   0.000003   0.000000   0.000000   0.000000  -0.021738
    14  H   -0.004566   0.000001   0.000000  -0.000000  -0.000000  -0.028575
    15  H    0.016909  -0.000084   0.000022   0.000005  -0.000038   0.002562
    16  H   -0.004423  -0.001153  -0.001356   0.000986   0.020304  -0.000027
    17  H   -0.061736  -0.004315  -0.000972   0.027991   0.001108   0.000018
    18  H    0.455327  -0.000025   0.000020  -0.000063   0.000009   0.000096
              13         14         15         16         17         18
     1  C    0.413960   0.380979  -0.010202  -0.000221  -0.000400  -0.013464
     2  C   -0.056331  -0.025688  -0.089388   0.021483   0.020021  -0.081222
     3  C    0.005966   0.000797   0.468094  -0.068956  -0.004177   0.019168
     4  C   -0.000643  -0.000216  -0.082449   0.462598   0.009653  -0.005981
     5  C    0.000231   0.000466   0.026607  -0.107246  -0.104501   0.025691
     6  C    0.000930  -0.000892  -0.005745   0.011233   0.455506  -0.077662
     7  C    0.001393  -0.004566   0.016909  -0.004423  -0.061736   0.455327
     8  S    0.000003   0.000001  -0.000084  -0.001153  -0.004315  -0.000025
     9  O    0.000000   0.000000   0.000022  -0.001356  -0.000972   0.000020
    10  O    0.000000  -0.000000   0.000005   0.000986   0.027991  -0.000063
    11  O    0.000000  -0.000000  -0.000038   0.020304   0.001108   0.000009
    12  H   -0.021738  -0.028575   0.002562  -0.000027   0.000018   0.000096
    13  H    0.540464  -0.022570   0.000106   0.000015  -0.000036   0.005162
    14  H   -0.022570   0.564163   0.000971  -0.000009   0.000013   0.000283
    15  H    0.000106   0.000971   0.571093  -0.013384   0.000093  -0.000252
    16  H    0.000015  -0.000009  -0.013384   0.564526  -0.000490   0.000082
    17  H   -0.000036   0.000013   0.000093  -0.000490   0.557030  -0.012438
    18  H    0.005162   0.000283  -0.000252   0.000082  -0.012438   0.569574
 Mulliken charges:
               1
     1  C   -0.381477
     2  C    0.186229
     3  C   -0.214562
     4  C   -0.196942
     5  C    0.090956
     6  C   -0.184999
     7  C   -0.213334
     8  S    0.640737
     9  O   -0.531337
    10  O   -0.530645
    11  O   -0.530977
    12  H    0.133979
    13  H    0.133087
    14  H    0.134843
    15  H    0.115078
    16  H    0.116038
    17  H    0.117632
    18  H    0.115695
 Sum of Mulliken charges =  -1.00000
 Mulliken charges with hydrogens summed into heavy atoms:
               1
     1  C    0.020432
     2  C    0.186229
     3  C   -0.099484
     4  C   -0.080904
     5  C    0.090956
     6  C   -0.067367
     7  C   -0.097639
     8  S    0.640737
     9  O   -0.531337
    10  O   -0.530645
    11  O   -0.530977
 Electronic spatial extent (au):  <R**2>=           2230.3663
 Charge=             -1.0000 electrons
 Dipole moment (field-independent basis, Debye):
    X=            -14.1324    Y=             -0.0009    Z=             -0.1954  Tot=             14.1337
 Quadrupole moment (field-independent basis, Debye-Ang):
   XX=            -97.6833   YY=            -75.3832   ZZ=            -83.4149
   XY=             -0.2577   XZ=             -0.0989   YZ=             -0.0112
 Traceless Quadrupole moment (field-independent basis, Debye-Ang):
   XX=            -12.1895   YY=             10.1106   ZZ=              2.0789
   XY=             -0.2577   XZ=             -0.0989   YZ=             -0.0112
 Octapole moment (field-independent basis, Debye-Ang**2):
  XXX=            -87.0774  YYY=              2.0090  ZZZ=             -6.4127  XYY=            -19.1508
  XXY=              0.6637  XXZ=             -0.0853  XZZ=             -9.4483  YZZ=             -2.0583
  YYZ=              5.7316  XYZ=              0.0159
 Hexadecapole moment (field-independent basis, Debye-Ang**3):
 XXXX=          -2403.0485 YYYY=           -440.4233 ZZZZ=           -215.4160 XXXY=             -1.8803
 XXXZ=              2.1630 YYYX=              7.2837 YYYZ=              0.1015 ZZZX=            -11.5358
 ZZZY=             -0.1773 XXYY=           -489.1149 XXZZ=           -468.7617 YYZZ=           -120.2794
 XXYZ=              0.1062 YYXZ=             10.2469 ZZXY=             -8.4756
 N-N= 7.088521754569D+02 E-N=-3.541566103453D+03  KE= 8.916138852303D+02
 No NMR shielding tensors so no spin-rotation constants.
 Leave Link  601 at Tue Mar 10 15:18:17 2020, MaxMem=  6979321856 cpu:               2.8 elap:               0.3
 (Enter /opt/g16/l9999.exe)

 Test job not archived.
 1\1\GINC-OBELIX\FOpt\RPBEPBE\def2TZVP/W06\C7H7O3S1(1-)\MTMJEA001\10-Ma
 r-2020\0\\#p pbepbe/def2tzvp/w06 opt scrf(cpcm,solvent=generic,read)\\
 tos\\-1,1\C,1.0958735845,0.0461316397,0.2158046123\C,2.5918242537,0.05
 37724215,0.0430236799\C,3.2934837566,1.2624057243,-0.1074934923\C,4.67
 57154604,1.2785365195,-0.2896957666\C,5.3937304398,0.0762444262,-0.324
 7218898\C,4.7122619722,-1.1344375075,-0.1761069602\C,3.3263174921,-1.1
 40067666,0.0058354462\S,7.1870564594,0.1052135111,-0.4970888678\O,7.69
 61000771,0.3861295148,0.8667063512\O,7.5670202949,-1.2356318866,-0.994
 2055444\O,7.4772450964,1.19393737,-1.4569291955\H,0.7728402575,0.80367
 61996,0.9445915457\H,0.7365270061,-0.9348991458,0.5537668464\H,0.58764
 02351,0.2783935588,-0.7337195378\H,2.7449554536,2.2075916695,-0.083277
 111\H,5.203145449,2.2257052986,-0.4142085794\H,5.2703378639,-2.0711078
 428,-0.2103919287\H,2.8043548477,-2.093553805,0.1196703919\\Version=ES
 64L-G16RevC.01\State=1-A\HF=-894.4660864\RMSD=1.446e-09\RMSF=2.021e-06
 \Dipole=-5.5316133,-0.0626836,0.5638644\Quadrupole=-8.9298668,7.496273
 8,1.4335929,-0.4012685,1.1548391,-0.2527944\PG=C01 [X(C7H7O3S1)]\\@


 MAN IS A SINGULAR CREATURE.  HE HAS A SET OF GIFTS
 WHICH MAKE HIM UNIQUE AMONG THE ANIMALS: SO THAT, 
 UNLIKE THEM, HE IS NOT A FIGURE IN THE LANDSCAPE --
 HE IS A SHAPER OF THE LANDSCAPE.

                       -- JACOB BRONOWSKI
 Job cpu time:       0 days  4 hours 34 minutes 17.0 seconds.
 Elapsed time:       0 days  0 hours 23 minutes 10.4 seconds.
 File lengths (MBytes):  RWF=    133 Int=      0 D2E=      0 Chk=     17 Scr=      1
 Normal termination of Gaussian 16 at Tue Mar 10 15:18:17 2020.
